# LAMMPS data file written by OVITO Basic 3.11.3

10000 atoms
3084 bonds
4 atom types
1 bond types

0.0 52.07929 xlo xhi
0.0 51.98687 ylo yhi
0.0 52.00763 zlo zhi

Masses

1 22.98977  # Na
2 26.981538  # Al
3 28.0855  # Si
4 15.9994  # O

Atoms  # bond

1 1 1 26.27819 45.82507 40.28823
2 1 1 44.93489 18.81197 6.01957
3 1 1 12.18279 29.29647 36.70533
4 1 1 39.15449 20.99587 20.27903
5 1 1 1.26786 41.91877 51.30533
6 1 1 2.09034 36.34497 11.58493
7 1 1 25.14229 39.64017 38.11533
8 1 1 12.86279 19.55127 31.15643
9 1 1 34.75849 21.96057 15.85503
10 1 1 10.92349 48.94347 28.98963
11 1 1 35.55989 34.81517 21.59663
12 1 1 46.99149 42.87187 49.01773
13 1 1 10.33519 37.77227 26.67513
14 1 1 31.33589 23.04377 38.70573
15 1 1 21.83869 20.27627 6.09453
16 1 1 32.42129 15.14067 34.66323
17 1 1 14.68509 51.40277 44.46633
18 1 1 23.93129 44.77517 49.99973
19 1 1 33.77859 11.21257 30.09863
20 1 1 14.52969 14.43217 20.77193
21 1 1 19.47279 42.81767 24.55963
22 1 1 21.10299 2.74346 46.92293
23 1 1 11.76319 46.49377 9.51553
24 1 1 31.26739 36.72257 31.99213
25 1 1 44.14189 2.78705 4.78368
26 1 1 6.43959 11.82937 30.08383
27 1 1 25.18309 43.64697 7.98103
28 1 1 31.48509 16.48307 1.22722
29 1 1 30.56339 8.66587 51.73503
30 1 1 43.76479 26.48007 27.97273
31 1 1 20.93599 25.31287 16.01893
32 1 1 33.13319 32.70717 11.86623
33 1 1 22.48929 39.73717 43.17823
34 1 1 33.57059 26.36467 24.83283
35 1 1 34.64379 45.84917 2.87843
36 1 1 1.54945 32.87117 26.88163
37 1 1 9.74609 4.82448 17.93473
38 1 1 29.64029 6.24057 5.4515
39 1 1 15.87179 34.31947 25.10433
40 1 1 29.33879 43.39617 9.88773
41 1 1 18.29979 13.37917 48.67803
42 1 1 34.93129 45.83117 23.65003
43 1 1 0.48323 1.25308 25.77463
44 1 1 29.73479 25.98877 24.72673
45 1 1 47.21329 45.38517 6.61493
46 1 1 2.14821 1.15606 31.72663
47 1 1 31.95429 12.28137 40.58553
48 1 1 34.13569 2.10897 4.0996
49 1 1 27.52369 9.51807 37.44803
50 1 1 31.77899 42.16237 35.35133
51 1 1 33.90229 33.71967 5.02744
52 1 1 3.77676 49.02447 13.47293
53 1 1 17.38139 40.75007 10.28853
54 1 1 30.28719 1.55765 11.50673
55 1 1 3.02989 13.90297 50.79703
56 1 1 49.47109 9.09717 21.72593
57 1 1 30.58319 31.31217 33.79463
58 1 1 42.10519 42.34927 46.59063
59 1 1 29.34209 36.82057 10.03553
60 1 1 31.97039 35.17387 19.48033
61 1 1 6.70499 35.86367 38.48183
62 1 1 11.40199 31.99217 41.03423
63 1 1 10.24769 38.97557 48.16493
64 1 1 49.49379 2.85521 45.07303
65 1 1 0.2987 46.83167 10.98563
66 1 1 51.81979 6.94527 30.99043
67 1 1 21.10089 32.00717 26.69363
68 1 1 11.72359 49.78277 0.15874
69 1 1 38.68469 46.28637 24.16773
70 1 1 17.22999 45.82267 12.99673
71 1 1 24.46999 16.98217 11.74913
72 1 1 36.71719 2.46677 9.76013
73 1 1 15.56909 5.89362 37.88683
74 1 1 4.61979 11.54187 19.73363
75 1 1 11.38179 2.96833 28.32523
76 1 1 51.84249 40.83377 11.78703
77 1 1 10.94689 43.42937 0.10125
78 1 1 47.10639 43.50657 10.26663
79 1 1 14.17939 37.77787 17.34113
80 1 1 24.94469 8.95267 31.03423
81 1 1 51.20029 26.60177 2.1082
82 1 1 37.00339 3.7053 31.70593
83 1 1 43.37129 35.98967 30.54103
84 1 1 5.98747 1.8005 42.97373
85 1 1 21.29109 1.81 32.74143
86 1 1 35.62539 1.14312 36.92653
87 1 1 38.97009 43.34927 8.41783
88 1 1 25.84849 41.01627 1.45724
89 1 1 5.44776 5.60481 34.73483
90 1 1 5.36916 46.50447 39.10973
91 1 1 2.26178 30.54327 21.53573
92 1 1 22.64249 32.70637 2.2701
93 1 1 46.60949 19.32227 12.43493
94 1 1 39.68609 42.99847 20.01023
95 1 1 0.45118 17.15387 13.13923
96 1 1 3.03947 19.78227 1.94501
97 1 1 16.05529 8.13117 40.11063
98 1 1 42.21389 30.84437 40.08143
99 1 1 14.65109 47.29467 43.32053
100 1 1 35.18269 9.73977 48.83773
101 1 1 37.08299 41.14667 29.41353
102 1 1 51.62079 34.44277 35.99493
103 1 1 2.86379 2.85222 18.41793
104 1 1 37.76329 45.19547 3.13722
105 1 1 4.01593 39.23997 17.23573
106 1 1 2.5119 41.39027 27.12513
107 1 1 35.27719 49.81147 32.62023
108 1 1 13.71779 8.48537 42.77943
109 1 1 1.92708 29.99087 45.74893
110 1 1 8.86399 34.01427 46.36223
111 1 1 13.71769 50.50397 12.10043
112 1 1 1.10378 46.16037 50.94703
113 1 1 41.48069 10.43167 38.40653
114 1 1 9.72289 33.88517 19.09143
115 1 1 5.86813 41.76337 9.54333
116 1 1 48.48859 22.26507 6.76593
117 1 1 31.64789 49.54177 43.01323
118 1 1 18.57199 8.30227 50.86713
119 1 1 18.26169 12.01087 34.48383
120 1 1 10.21609 33.54657 28.05033
121 1 1 38.29209 1.16971 0.8034
122 1 1 18.97699 44.23137 42.16463
123 1 1 43.79319 8.52167 15.10483
124 1 1 32.03109 16.77327 43.75153
125 1 1 51.78239 36.41637 5.2257
126 1 1 42.07179 19.02027 44.76063
127 1 1 20.78559 19.06547 19.20623
128 1 1 20.19999 15.42717 26.84883
129 1 1 26.82129 22.30107 33.40863
130 1 1 36.64089 39.03637 4.80835
131 1 1 49.30909 21.57617 16.23633
132 1 1 5.92033 32.44067 47.94033
133 1 1 51.15839 28.86557 17.22653
134 1 1 27.83279 21.74157 41.81083
135 1 1 15.63939 30.62737 49.70773
136 1 1 4.66739 33.66767 13.02373
137 1 1 24.14559 16.80357 50.42693
138 1 1 3.35063 20.25217 16.80473
139 1 1 7.27149 7.10867 25.34973
140 1 1 3.52314 38.40377 9.01193
141 1 1 2.3854 28.05807 50.62563
142 1 1 42.37539 32.08187 23.32973
143 1 1 2.86693 17.43797 23.15293
144 1 1 9.52659 5.70496 1.29232
145 1 1 6.52379 23.87507 13.15653
146 1 1 43.27649 20.20637 35.68803
147 1 1 45.71289 3.10123 35.02203
148 1 1 49.39869 12.54447 28.81163
149 1 1 10.18749 29.72777 46.95983
150 1 1 36.01309 19.75317 26.06763
151 1 1 42.63409 3.04849 29.55933
152 1 1 45.02429 5.00575 24.86703
153 1 1 46.33469 23.36997 32.21773
154 1 1 8.63259 51.15107 32.18403
155 1 1 45.36369 19.87867 23.78643
156 1 1 13.91589 15.71977 25.03733
157 1 1 18.13829 7.82647 26.89243
158 1 1 49.59269 40.16277 34.17473
159 1 1 46.95809 19.64897 49.39713
160 1 1 50.54089 40.59477 45.44503
161 1 1 32.96249 41.46497 5.22328
162 1 1 12.59789 49.17357 7.22173
163 1 1 26.32059 42.49817 11.37743
164 1 1 26.49569 46.74437 48.53913
165 1 1 51.22399 11.37497 4.80039
166 1 1 47.22979 48.01557 21.72873
167 1 1 18.25499 1.14269 43.79863
168 1 1 49.80319 33.54627 13.98763
169 1 1 20.14619 13.33757 37.09023
170 1 1 3.59991 46.41717 42.56253
171 1 1 4.52701 15.59447 17.55333
172 1 1 18.21979 8.18507 14.21483
173 1 1 10.44329 44.77147 39.19533
174 1 1 32.05249 39.06237 26.45203
175 1 1 50.77119 15.18257 25.48403
176 1 1 38.86579 48.98157 3.91401
177 1 1 42.73789 51.30807 20.49333
178 1 1 38.75189 13.57357 7.09543
179 1 1 14.02769 6.93137 29.16853
180 1 1 34.06469 19.92387 46.01873
181 1 1 18.47279 35.17917 21.57133
182 1 1 43.33949 27.40507 42.42993
183 1 1 1.14177 5.52413 36.63343
184 1 1 50.20369 48.98167 34.12633
185 1 1 50.13579 6.68697 14.72623
186 1 1 37.82339 27.96967 18.45213
187 1 1 12.56269 1.83266 20.36673
188 1 1 14.02069 13.18077 1.19202
189 1 1 20.57229 22.29797 40.68993
190 1 1 2.59307 36.54827 42.96593
191 1 1 52.07929 51.74397 5.88131
192 1 1 41.81819 22.73487 12.87073
193 1 1 10.19529 29.11267 27.25123
194 1 1 40.66779 31.75737 3.24586
195 1 1 38.18199 41.26117 35.45043
196 1 1 9.51859 23.90667 28.80543
197 1 1 35.46479 8.94057 15.99863
198 1 1 13.53009 5.82552 12.36073
199 1 1 3.5772 46.16637 6.78823
200 1 1 46.32309 26.84017 10.03023
201 1 1 23.48459 15.10527 17.54793
202 1 1 0.20272 6.18377 20.71593
203 1 1 33.13089 44.11577 46.87773
204 1 1 19.78479 16.85437 45.16233
205 1 1 29.54469 17.40637 16.71633
206 1 1 30.28429 3.40319 32.53793
207 1 1 40.59249 1.51262 19.21533
208 1 1 37.51199 50.86257 28.99393
209 1 1 20.99789 25.14567 1.35133
210 1 1 27.87579 28.45227 49.99743
211 1 1 36.15639 15.46027 39.47223
212 1 1 28.05959 30.41977 15.72983
213 1 1 5.73729 45.14717 30.56303
214 1 1 20.34359 27.08367 44.90633
215 1 1 45.59709 15.24987 18.05663
216 1 1 27.90299 9.79157 19.06663
217 1 1 15.83209 21.79157 29.67913
218 1 1 12.98629 26.92827 42.40343
219 1 1 15.66939 13.53597 28.25663
220 1 1 17.20569 23.93347 39.05513
221 1 1 7.75289 28.83677 20.98293
222 1 1 14.18249 19.73777 44.28373
223 1 1 5.41576 39.25107 43.91773
224 1 1 28.02599 40.77487 20.99533
225 1 1 45.66699 40.06137 3.55819
226 1 1 40.04139 12.53797 31.23703
227 1 1 48.57679 8.87757 10.62853
228 1 1 2.97119 40.05777 22.57203
229 1 1 21.84969 48.04887 34.83443
230 1 1 35.19369 21.13097 21.63293
231 1 1 3.59851 17.52727 4.82302
232 1 1 15.90519 27.30607 19.32943
233 1 1 48.74339 27.89757 21.51923
234 1 1 50.96639 49.99207 16.87003
235 1 1 14.17929 31.70697 4.45697
236 1 1 13.92929 31.67337 38.76253
237 1 1 17.15099 46.62437 51.72823
238 1 1 11.48479 16.24607 11.02693
239 1 1 14.50529 40.34687 22.36653
240 1 1 15.00749 29.56417 28.79983
241 1 1 18.70279 37.51627 5.73859
242 1 1 14.47959 17.77377 5.90746
243 1 1 26.66669 23.42087 15.32563
244 1 1 39.14929 5.49818 24.05823
245 1 1 39.99809 23.35517 43.62613
246 1 1 14.11569 24.37417 15.95493
247 1 1 4.34698 4.15067 23.19173
248 1 1 30.40359 34.36377 36.19583
249 1 1 27.34279 48.56867 8.35923
250 1 1 10.09559 36.56827 9.97293
251 1 1 12.60399 26.16157 34.18403
252 1 1 26.83139 6.57657 13.11183
253 1 1 17.98609 9.17487 44.80073
254 1 1 27.81899 38.39397 7.58523
255 1 1 44.33329 27.25287 51.31533
256 1 1 25.97049 24.67687 39.36903
257 1 1 42.54549 20.21477 16.84683
258 1 1 49.73659 11.88647 43.35243
259 1 1 33.87299 17.22787 26.76803
260 1 1 35.68189 3.55126 23.43513
261 1 1 16.50199 22.79067 2.34202
262 1 1 6.38799 34.62087 3.12163
263 1 1 15.54619 5.39624 42.17473
264 1 1 21.62299 31.84637 8.27013
265 1 1 4.01652 36.03287 27.85723
266 1 1 45.70319 34.14247 28.56543
267 1 1 21.04349 24.09397 12.63183
268 1 1 27.69269 29.68587 4.33658
269 1 1 22.97419 38.67447 51.64003
270 1 1 31.28129 37.22157 6.97583
271 1 1 31.83069 11.11417 3.49164
272 1 1 26.27159 49.26157 1.99426
273 1 1 2.63002 30.59137 1.008
274 1 1 21.13459 30.60637 12.17533
275 1 1 26.57559 17.23757 6.52033
276 1 1 40.67349 4.32401 9.41683
277 1 1 41.88989 48.24967 8.21403
278 1 1 29.21799 6.92057 25.60483
279 1 1 44.45309 8.51397 18.76923
280 1 1 5.9993 16.87787 43.52133
281 1 1 44.92439 24.64957 35.09213
282 1 1 0.79055 11.58667 20.79643
283 1 1 43.47899 13.05797 25.23023
284 1 1 50.63099 16.85877 35.54013
285 1 1 30.62829 49.26307 19.45693
286 1 1 5.24457 10.77797 4.97073
287 1 1 30.85859 29.40457 50.87143
288 1 1 14.63959 36.06687 49.07703
289 1 1 16.62699 5.26275 6.08113
290 1 1 21.51769 17.36297 50.95703
291 1 1 7.63469 45.59297 15.68353
292 1 1 2.64937 13.77317 30.78903
293 1 1 17.45389 40.76357 40.01283
294 1 1 16.17749 3.09282 11.82793
295 1 1 22.93219 17.70847 2.69888
296 1 1 17.76769 16.36357 40.32513
297 1 1 19.48129 38.13237 26.26373
298 1 1 24.80819 6.98537 9.18443
299 1 1 36.34989 39.11287 49.27093
300 1 1 11.71079 41.96267 13.60383
301 1 1 8.10879 10.49157 21.13453
302 1 1 2.13456 33.00407 32.66013
303 1 1 2.50603 27.83737 24.75753
304 1 1 24.38069 26.87137 0.98123
305 1 1 51.88419 8.00477 26.00663
306 1 1 13.47459 46.97517 18.42143
307 1 1 20.48159 20.93187 27.73783
308 1 1 31.89219 1.06471 38.68783
309 1 1 47.10139 3.3378 28.77193
310 1 1 25.86279 4.9461 35.02043
311 1 1 19.74599 12.80997 9.46743
312 1 1 17.94049 43.72317 27.89043
313 1 1 19.50759 8.43917 11.65853
314 1 1 34.00979 7.23987 19.73043
315 1 1 44.38419 4.39475 41.98363
316 1 1 31.33249 16.40607 21.79553
317 1 1 8.42199 3.32882 50.38283
318 1 1 4.43429 28.82497 37.80753
319 1 1 41.85549 42.42207 17.05483
320 1 1 17.39889 49.51407 1.45149
321 1 1 43.33639 11.50577 9.12503
322 1 1 19.86849 4.26359 28.34613
323 1 1 41.81039 15.30447 33.27503
324 1 1 28.82989 11.18307 22.22113
325 1 1 47.74529 8.99607 31.78293
326 1 1 5.96975 41.27407 2.577
327 1 1 5.84187 13.77177 38.45613
328 1 1 20.80109 7.48787 29.34663
329 1 1 17.47389 42.03197 34.87263
330 1 1 20.05879 37.54497 30.77983
331 1 1 47.00469 31.28437 29.31073
332 1 1 2.69811 24.86027 18.17733
333 1 1 51.29179 29.93057 34.17603
334 1 1 16.89899 50.21397 31.34543
335 1 1 31.17529 4.27226 28.10323
336 1 1 28.76379 14.74207 5.63957
337 1 1 10.08879 9.27577 7.68013
338 1 1 11.36219 23.14517 48.87823
339 1 1 1.61097 11.59677 43.74603
340 1 1 40.10659 15.01157 1.37016
341 1 1 24.37489 8.23627 27.38303
342 1 1 17.72139 42.72887 18.68243
343 1 1 4.53479 26.63247 31.66563
344 1 1 50.32359 41.55787 48.21083
345 1 1 51.88179 32.28987 50.06763
346 1 1 45.45569 39.09167 25.59313
347 1 1 10.70419 46.70357 45.87873
348 1 1 50.27869 21.86107 1.08551
349 1 1 28.20079 40.21867 12.97083
350 1 1 28.91259 13.19277 33.62733
351 1 1 32.82249 23.01157 7.26553
352 1 1 6.02355 17.24247 34.09933
353 1 1 14.90639 47.83827 8.71363
354 1 1 13.15219 29.72267 10.62713
355 1 1 39.72319 11.79997 21.21693
356 1 1 43.08999 49.28807 32.41213
357 1 1 41.81099 30.55727 17.60763
358 1 1 51.39169 34.73537 44.11063
359 1 1 0.68795 13.54807 34.37763
360 1 1 50.11579 35.32667 23.45673
361 1 1 21.17129 3.11591 13.57883
362 1 1 27.19999 37.87427 33.86653
363 1 1 20.76619 47.03537 15.93103
364 1 1 9.08119 50.32737 42.63863
365 1 1 6.98519 32.38317 33.03633
366 1 1 39.04659 37.97637 46.69513
367 1 1 24.01709 7.40317 43.99613
368 1 1 50.86409 32.37227 10.84783
369 1 1 49.02319 19.25897 22.63593
370 1 1 5.46894 21.55397 40.08883
371 1 1 11.25619 5.39392 50.06503
372 1 1 35.30439 31.22277 44.92703
373 1 1 11.40649 7.97637 32.54453
374 1 1 4.36191 22.78887 47.09073
375 1 1 37.32049 51.88437 40.38103
376 1 1 20.97619 39.25117 17.55833
377 1 1 7.84149 27.32747 15.40873
378 1 1 31.16239 33.39877 8.15663
379 1 1 17.57379 42.82477 14.70863
380 1 1 15.79379 11.06137 15.80093
381 1 1 32.47709 24.88097 11.43143
382 1 1 25.34959 43.44117 15.40543
383 1 1 37.23839 13.02087 1.5078
384 1 1 49.37219 4.5712 6.36903
385 1 1 23.84639 1.14541 15.19533
386 1 1 48.50849 28.58577 33.92283
387 1 1 22.06829 1.96531 4.17469
388 1 1 50.17989 14.80137 5.92143
389 1 1 39.70539 22.65687 51.30773
390 1 1 31.35549 21.23597 16.69943
391 1 1 29.14469 38.93187 50.13203
392 1 1 26.18129 18.12097 28.65513
393 1 1 4.27173 7.87117 29.47563
394 1 1 29.78799 49.32117 13.60863
395 1 1 8.41219 5.57595 14.45103
396 1 1 42.74879 14.39507 19.14183
397 1 1 18.35949 50.07497 6.96753
398 1 1 7.24199 8.17147 15.93333
399 1 1 28.88289 2.96809 42.94853
400 1 1 14.29569 9.71667 10.78823
401 1 1 19.81029 17.56957 38.67723
402 1 1 41.09249 38.27077 22.34873
403 1 1 44.77649 23.69527 11.58763
404 1 1 33.19769 22.55757 43.73803
405 1 1 27.38569 12.48337 17.10843
406 1 1 43.71579 38.33247 41.66493
407 1 1 37.66909 19.58437 31.74213
408 1 1 49.00249 2.35166 11.29273
409 1 1 49.02379 30.75657 8.83283
410 1 1 7.53989 5.95288 40.62353
411 1 1 17.63239 40.42227 1.90049
412 1 1 6.13429 25.98807 6.27553
413 1 1 46.48179 37.89357 19.43733
414 1 1 51.64799 19.73587 49.22163
415 1 1 13.14389 29.47497 0.45216
416 1 1 41.87969 46.68137 26.29353
417 1 1 17.31059 23.14187 26.73283
418 1 1 14.30949 12.86117 47.45403
419 1 1 15.83049 21.06417 15.03713
420 1 1 21.85779 13.84027 43.56383
421 1 1 10.09859 10.12137 26.10373
422 1 1 38.57529 8.78297 3.42119
423 1 1 10.53759 24.75717 21.49943
424 1 1 48.56889 5.73781 49.25893
425 1 1 35.10619 31.92647 35.67773
426 1 1 33.13579 45.09737 15.00723
427 1 1 2.30468 18.38297 26.79463
428 1 1 28.60129 14.23307 50.78313
429 1 1 19.09219 0.75604 36.65653
430 1 1 25.35059 21.40807 8.17063
431 1 1 46.94219 30.01887 2.93729
432 1 1 49.03539 43.81107 17.06213
433 1 1 1.29272 12.33547 24.35803
434 1 1 19.13539 27.72987 1.82793
435 1 1 19.89769 30.31357 36.78423
436 1 1 1.41918 10.74777 51.41703
437 1 1 12.55379 50.99467 3.57388
438 1 1 20.60979 31.61777 16.21943
439 1 1 3.65565 45.96107 16.49683
440 1 1 42.62109 37.19657 2.16747
441 1 1 40.04339 13.92337 45.72733
442 1 1 37.41979 35.30867 29.72923
443 1 1 51.28199 36.49437 30.83323
444 1 1 29.32589 22.44977 30.26633
445 1 1 46.34049 5.04243 18.91493
446 1 1 36.22159 9.05877 36.91583
447 1 1 42.95819 10.09047 3.01565
448 1 1 41.63379 31.10057 7.72663
449 1 1 16.22209 20.64217 11.59423
450 1 1 36.48609 8.60607 31.00673
451 1 1 18.74899 43.30247 6.56213
452 1 1 16.36079 25.23317 7.57803
453 1 1 6.19299 9.83357 48.93963
454 1 1 7.41979 17.88447 49.61193
455 1 1 41.43809 34.73987 51.64643
456 1 1 28.44099 17.01537 37.10123
457 1 1 16.72879 14.89617 45.51503
458 1 1 14.67629 14.24317 34.81303
459 1 1 23.15269 37.14627 14.81893
460 1 1 20.45359 20.38657 12.13683
461 1 1 45.56139 50.01097 39.61663
462 1 1 14.06279 20.37017 48.26603
463 1 1 11.81519 35.97287 31.21573
464 1 1 48.10499 20.02247 27.09293
465 1 1 22.53319 4.06739 23.88093
466 1 1 16.77449 24.73307 11.05193
467 1 1 12.46159 21.19557 14.62583
468 1 1 21.17459 0.97019 1.24617
469 1 1 12.85619 32.86537 51.27923
470 1 1 38.37509 3.74835 48.30723
471 1 1 10.05249 12.59587 30.49193
472 1 1 50.62079 14.21497 50.94223
473 1 1 4.58643 19.74447 25.70443
474 1 1 44.11249 19.45877 1.72699
475 1 1 23.39469 8.61927 16.99283
476 1 1 11.50299 10.50187 42.03793
477 1 1 47.43159 26.27897 48.80073
478 1 1 37.26239 39.53147 1.06899
479 1 1 49.26969 39.97107 51.19043
480 1 1 25.00029 28.51567 28.63643
481 1 1 2.94262 40.03877 2.76978
482 1 1 13.02159 26.37397 50.39133
483 1 1 15.74159 41.36457 44.66683
484 1 1 41.75749 6.30447 42.65733
485 1 1 18.61149 23.66987 33.12393
486 1 1 3.84962 5.80301 40.53323
487 1 1 41.17309 12.97687 27.83713
488 1 1 12.37909 39.39597 5.06518
489 1 1 47.32919 36.82477 40.87043
490 1 1 45.59609 22.26917 40.73093
491 1 1 42.93509 49.84017 50.98073
492 1 1 47.13499 26.99057 25.39123
493 1 1 34.15589 29.18937 37.59023
494 1 1 2.14585 47.42487 27.01283
495 1 1 26.20629 50.63257 48.25413
496 1 1 50.99869 24.29847 31.82363
497 1 1 37.95299 42.57397 44.25783
498 1 1 28.60499 36.37037 38.22343
499 1 1 12.59349 43.19947 18.94753
500 1 1 39.81909 31.86357 32.06263
501 1 1 16.45679 16.85757 15.90393
502 1 1 41.75169 2.78934 44.11133
503 1 1 7.47899 19.86687 10.74093
504 1 1 29.68299 34.70037 2.3911
505 1 1 26.60789 16.24897 45.42993
506 1 1 36.23459 35.80967 16.80673
507 1 1 8.41859 42.78987 5.23961
508 1 1 3.52471 37.11187 47.93923
509 1 1 10.89839 50.48567 40.02393
510 1 1 32.57729 35.63537 48.69913
511 1 1 13.31509 2.75314 33.52593
512 1 1 4.75714 2.83853 11.99693
513 1 1 42.25129 5.40279 51.79053
514 1 1 28.69779 26.49377 7.88683
515 1 1 5.82078 38.10707 50.35963
516 1 1 23.43009 46.63957 43.87143
517 1 1 30.01339 35.40017 25.07143
518 1 1 23.22619 23.57477 9.12333
519 1 1 18.49019 39.54747 45.96923
520 1 1 29.28909 40.77517 43.70953
521 1 1 40.91619 49.90297 18.07843
522 1 1 26.51239 49.58407 27.00923
523 1 1 20.22479 2.24215 20.33903
524 1 1 41.73839 36.21757 7.55133
525 1 1 12.49529 0.39973 6.85613
526 1 1 29.10289 24.62077 48.10393
527 1 1 24.45859 10.44567 41.29053
528 1 1 10.59929 24.25147 45.96933
529 1 1 32.49079 8.35417 26.71663
530 1 1 15.02179 12.32507 8.18133
531 1 1 31.87329 34.03837 45.85043
532 1 1 9.81549 50.71897 8.58163
533 1 1 34.94539 2.12261 40.19773
534 1 1 10.54059 19.58567 17.11173
535 1 1 30.39999 28.36757 41.20373
536 1 1 17.86379 6.29837 33.28623
537 1 1 20.96749 34.07817 39.33763
538 1 1 5.2781 50.08577 26.13573
539 1 1 14.42349 51.48837 9.31123
540 1 1 14.41559 31.17397 16.74313
541 1 1 15.82009 43.68477 9.57743
542 1 1 38.86749 7.47107 42.41853
543 1 1 9.13249 44.29487 48.77883
544 1 1 23.58299 24.40427 4.04007
545 1 1 10.61329 24.90277 9.62313
546 1 1 29.32559 47.68007 34.95993
547 1 1 5.49514 36.28157 41.37213
548 1 1 45.81899 16.60237 31.05613
549 1 1 15.30029 38.16457 45.14253
550 1 1 28.33269 11.95957 9.06273
551 1 1 22.99039 22.63627 47.96303
552 1 1 11.24139 14.17777 3.29365
553 1 1 39.91519 7.52737 46.35223
554 1 1 14.36159 45.19577 20.89163
555 1 1 10.59079 31.21677 24.40113
556 1 1 47.96269 4.07981 22.92103
557 1 1 10.21509 15.53357 45.54203
558 1 1 43.03039 16.44047 39.33563
559 1 1 47.79489 10.64707 39.56673
560 1 1 28.56239 30.51277 46.01763
561 1 1 12.28089 44.27017 32.39523
562 1 1 21.62679 39.05647 23.54883
563 1 1 1.75483 39.79907 33.06063
564 1 1 5.93771 46.86637 48.18913
565 1 1 31.77809 25.45347 3.12125
566 1 1 50.64409 14.15857 2.7941
567 1 1 40.68899 17.22007 10.75603
568 1 1 36.70329 27.35727 50.56953
569 1 1 49.18289 29.26267 6.43503
570 1 1 48.65929 46.02707 27.99893
571 1 1 47.95569 8.44647 18.94173
572 1 1 32.04629 5.73919 16.90043
573 1 1 25.31009 22.73247 30.90683
574 1 1 42.19969 7.24127 11.56863
575 1 1 13.60949 42.89387 26.53793
576 1 1 36.13069 31.05497 10.85463
577 1 1 26.45549 36.75287 28.57433
578 1 1 46.76629 12.00817 12.49143
579 1 1 22.23639 47.88407 22.40403
580 1 1 36.00219 43.32957 39.93973
581 1 1 23.96899 27.67547 33.57543
582 1 1 2.36118 5.99165 46.99943
583 1 1 41.94589 25.76167 36.63763
584 1 1 25.21349 37.02767 20.66853
585 1 1 18.48249 27.79767 42.04243
586 1 1 37.17339 22.21877 7.75003
587 1 1 45.82359 43.63067 34.82113
588 1 1 25.42449 47.64417 20.59903
589 1 1 45.89369 13.79587 45.94143
590 1 1 24.76309 50.19927 22.56073
591 1 1 10.18139 34.32147 4.37462
592 1 1 39.67669 0.38873 21.78043
593 1 1 11.37179 51.11987 22.86093
594 1 1 33.24099 44.34567 38.37373
595 1 1 37.99039 36.04057 40.49003
596 1 1 2.52015 16.78187 2.05792
597 1 1 38.90539 10.40237 17.11753
598 1 1 3.61931 33.70887 24.58073
599 1 1 44.48319 45.81117 15.84823
600 1 1 51.19879 12.51727 12.01783
601 1 1 0.8389 10.10597 37.27663
602 1 1 4.27767 23.75987 10.39273
603 1 1 51.66249 43.95527 21.95273
604 1 1 14.83879 38.02767 30.48153
605 1 1 15.37039 27.12297 23.12933
606 1 1 21.42429 48.34827 9.43033
607 1 1 11.13389 24.04997 40.75223
608 1 1 37.21269 28.01287 23.79193
609 1 1 49.03259 41.18737 38.70053
610 1 1 31.44629 51.94617 7.44013
611 1 1 0.18225 26.35107 23.17113
612 1 1 0.27124 24.75137 47.43473
613 1 1 27.81379 32.81817 10.57923
614 1 1 49.26239 49.27997 51.22483
615 1 1 26.99359 1.6161 27.12313
616 1 1 29.82159 5.28044 2.41072
617 1 1 22.54499 32.96987 36.73833
618 1 1 26.05959 45.58467 26.05653
619 1 1 34.76589 11.11527 9.60723
620 1 1 41.70019 25.81487 9.87093
621 1 1 11.81429 5.61217 8.19033
622 1 1 49.59709 41.08597 22.26063
623 1 1 29.86279 10.29107 15.53413
624 1 1 45.61249 51.07967 23.22483
625 1 1 35.04369 36.78217 37.44503
626 1 1 1.51831 30.12147 28.75553
627 1 1 39.33749 14.76997 20.35953
628 1 1 34.81579 15.50037 32.62013
629 1 1 48.98669 10.10017 2.21994
630 1 1 33.89859 31.30747 25.51233
631 1 1 19.22229 13.30827 16.50823
632 1 1 39.98859 16.73667 14.92073
633 1 1 39.70489 21.66257 46.40633
634 1 1 33.20059 22.14727 32.68383
635 1 1 12.45629 0.67001 50.03783
636 1 1 35.43349 50.17287 45.15893
637 1 1 5.38664 28.61217 17.26273
638 1 1 8.82679 34.23267 15.81703
639 1 1 7.06879 51.09387 14.75533
640 1 1 48.04379 31.45887 32.51093
641 1 1 10.81779 25.25797 3.13306
642 1 1 43.52649 43.33277 31.84313
643 1 1 33.13529 28.07447 17.81103
644 1 1 19.18049 18.71627 41.80273
645 1 1 3.70236 30.25757 9.51053
646 1 1 24.92669 45.59547 31.31113
647 1 1 6.68089 32.90497 40.82143
648 1 1 46.36849 34.55307 49.79493
649 1 1 37.43889 8.85317 25.66073
650 1 1 23.84759 33.68187 49.53843
651 1 1 41.08029 36.56877 19.18663
652 1 1 50.07089 42.49237 28.03163
653 1 1 26.82209 27.66927 25.23053
654 1 1 12.08839 11.21337 50.84583
655 1 1 47.11029 20.00767 20.70383
656 1 1 41.60419 37.80347 35.49553
657 1 1 33.08439 31.96227 51.21273
658 1 1 42.08279 51.05267 12.80083
659 1 1 14.89069 37.11487 39.99013
660 1 1 47.11219 26.61147 44.35833
661 1 1 49.13339 28.65777 37.21353
662 1 1 4.65338 1.90845 2.421
663 1 1 27.62139 30.24357 42.47793
664 1 1 43.97279 13.41487 49.98813
665 1 1 18.77029 24.69687 19.19403
666 1 1 25.79499 39.81777 31.80293
667 1 1 10.30199 38.59847 34.84613
668 1 1 35.44599 14.60457 48.05773
669 1 1 6.35439 0.27384 51.17793
670 1 1 22.17979 22.28937 14.98343
671 1 1 0.5626 18.64547 31.47153
672 1 1 9.66409 18.26437 39.87113
673 1 1 15.11529 21.19867 24.04063
674 1 1 6.35659 10.88937 2.03205
675 1 1 10.25649 40.90367 42.28513
676 1 1 19.56689 8.93517 21.23013
677 1 1 35.54289 35.55637 10.74203
678 1 1 5.85583 48.37117 16.73183
679 1 1 15.37219 9.22237 26.00113
680 1 1 5.20871 25.65977 45.93133
681 1 1 41.88879 47.00097 34.64973
682 1 1 17.41599 51.00697 15.48203
683 1 1 37.16639 21.20187 38.50613
684 1 1 12.82989 44.59187 3.78522
685 1 1 1.27554 0.1621 22.46893
686 1 1 23.16839 36.56277 43.79123
687 1 1 45.25019 13.52977 21.32633
688 1 1 4.64816 31.39197 29.68263
689 1 1 12.61779 44.09237 49.60333
690 1 1 25.45929 50.59477 12.93213
691 1 1 44.61679 9.98897 45.82903
692 1 1 34.66529 51.44667 16.62763
693 1 1 0.49286 28.56247 11.05583
694 1 1 1.71603 8.12207 8.45043
695 1 1 20.65189 30.21467 20.42143
696 1 1 35.98069 44.98007 6.28143
697 1 1 4.70211 41.82727 19.19863
698 1 1 35.33679 20.20457 11.13013
699 1 1 48.97619 15.55507 20.80693
700 1 1 43.43429 12.56267 30.61753
701 1 1 44.89719 1.93489 10.48103
702 1 1 45.25199 42.49777 26.00513
703 1 1 32.56519 6.08557 46.75553
704 1 1 45.62409 51.66327 43.63183
705 1 1 51.03609 50.92617 41.44233
706 1 1 3.14721 35.82227 16.29133
707 1 1 0.62959 16.96457 40.28173
708 1 1 45.40149 36.29357 14.89663
709 1 1 9.47079 6.31757 5.49643
710 1 1 1.20412 19.75527 21.54953
711 1 1 31.06389 45.47117 29.67703
712 1 1 31.95399 44.39547 23.99523
713 1 1 26.48839 50.16497 33.11103
714 1 1 2.70723 25.37347 4.72499
715 1 1 51.73839 14.50907 45.03213
716 1 1 40.46579 27.47567 48.09243
717 1 1 28.01899 30.00767 27.15123
718 1 1 42.62689 24.21947 6.49743
719 1 1 28.40949 22.73847 35.93163
720 1 1 15.77299 6.61667 2.3973
721 1 1 47.84439 45.77367 32.41083
722 1 1 49.47279 49.71027 10.67113
723 1 1 18.89809 28.06827 21.54543
724 1 1 49.27899 17.55017 45.32173
725 1 1 7.50599 39.70647 33.00413
726 1 1 49.63069 20.67327 39.76783
727 1 1 15.89759 21.40497 32.91633
728 1 1 39.89379 4.52418 34.94893
729 1 1 36.90209 51.57377 24.46283
730 1 1 31.86549 27.95747 22.38953
731 1 1 39.51489 34.73127 43.35503
732 1 1 38.55349 4.47127 16.40773
733 1 1 19.82559 33.30657 45.44323
734 1 1 50.28359 22.98117 34.27763
735 1 1 33.44599 34.66357 39.48333
736 1 1 45.46729 32.52177 38.38303
737 1 1 50.42299 47.29147 5.24349
738 1 1 20.42269 26.32937 25.59263
739 1 1 26.20969 21.94487 28.05853
740 1 1 48.67809 3.53843 25.83473
741 1 1 20.17479 28.25187 17.83363
742 1 1 44.78979 36.18577 46.88873
743 1 1 29.09949 41.94927 51.46583
744 1 1 4.65199 23.51807 35.39053
745 1 1 37.48349 16.08427 26.36773
746 1 1 22.45319 13.18867 32.18753
747 1 1 50.87159 32.60917 6.82943
748 1 1 27.68669 39.15247 40.33283
749 1 1 16.87599 34.14517 9.66323
750 1 1 46.10929 0.98282 2.37956
751 1 1 25.46579 19.77667 36.09873
752 1 1 31.93899 5.1804 25.36683
753 1 1 45.97739 47.64877 46.18603
754 1 1 38.01919 45.79207 15.16923
755 1 1 39.98859 4.04009 40.83563
756 1 1 48.23769 15.00727 1.29328
757 1 1 32.93919 2.1575 22.55053
758 1 1 3.7082 13.98307 10.96913
759 1 1 37.36349 42.18417 50.21983
760 1 1 26.82339 31.13657 20.79643
761 1 1 23.44369 16.54227 32.97693
762 1 1 45.51569 33.61087 31.84553
763 1 1 23.76199 30.36917 39.19633
764 1 1 23.38129 3.6102 8.64433
765 1 1 25.97889 10.26317 45.99883
766 1 1 26.03269 18.07217 22.68293
767 1 1 1.38983 3.40936 49.42273
768 1 1 7.22589 22.49007 21.68463
769 1 1 47.12469 35.07337 25.81603
770 1 2 14.55909 8.82227 13.95343
771 1 2 43.14299 6.92767 8.71043
772 1 2 28.30539 23.99327 21.91483
773 1 2 45.80219 42.59447 1.24168
774 1 2 3.57727 47.44517 49.78343
775 1 2 32.60189 18.42587 19.79803
776 1 2 42.28319 20.70527 4.48616
777 1 2 12.10019 44.71267 29.26763
778 1 2 50.40819 20.02537 36.75543
779 1 2 37.38959 30.03607 41.11103
780 1 2 20.10209 0.85361 6.45613
781 1 2 27.00089 33.83567 13.25893
782 1 2 49.69309 38.11957 20.54853
783 1 2 48.12089 11.77017 20.98573
784 1 2 10.05469 13.64867 11.21883
785 1 2 37.96069 25.31757 0.67219
786 1 2 11.66569 20.29777 3.95001
787 1 2 38.12289 5.67354 11.05633
788 1 2 24.31599 30.42947 42.80273
789 1 2 20.27789 2.26036 49.73163
790 1 2 51.22359 13.69147 9.39323
791 1 2 25.62929 36.21637 17.50773
792 1 2 14.07979 6.08977 33.00853
793 1 2 18.59069 38.38387 41.06653
794 1 2 50.70749 41.73047 1.43348
795 1 2 0.78528 12.79007 27.49373
796 1 2 35.81609 50.64277 26.89153
797 1 2 4.22155 32.86907 27.78473
798 1 2 31.39329 22.45027 14.01933
799 1 2 41.50199 48.52957 2.24394
800 1 2 41.32489 24.94777 30.22833
801 1 2 34.56379 40.11877 28.09063
802 1 2 28.20469 51.39627 50.45923
803 1 2 20.75579 33.06437 5.09456
804 1 2 13.19009 9.04257 34.76623
805 1 2 17.00839 9.08957 23.24053
806 1 2 29.64219 37.02057 4.37914
807 1 2 8.17919 22.46867 34.48333
808 1 2 24.39499 19.71267 26.17483
809 1 2 2.987 11.54127 1.77303
810 1 2 28.02489 42.60647 24.96773
811 1 2 30.16209 10.47447 25.02583
812 1 2 42.25179 4.98663 2.92608
813 1 2 7.89729 49.49757 50.97233
814 1 2 25.42849 1.6925 38.64483
815 1 2 16.68089 42.90237 25.01413
816 1 2 41.65679 37.38327 44.54383
817 1 2 49.08549 28.58357 43.34583
818 1 2 24.09169 24.94147 15.83753
819 1 2 46.27099 19.05067 8.59543
820 1 2 5.29937 18.43127 22.19453
821 1 2 33.26479 28.95857 30.28173
822 1 2 44.20309 19.32857 11.29533
823 1 2 33.05139 3.07289 27.01173
824 1 2 37.18399 50.71247 48.19463
825 1 2 41.25569 0.82541 50.83883
826 1 2 36.86439 45.60127 51.92083
827 1 2 50.32449 38.03247 36.78913
828 1 2 10.02449 22.12957 19.96263
829 1 2 24.57659 50.46657 38.81183
830 1 2 8.44469 11.72647 49.08853
831 1 2 33.81799 17.25747 35.36533
832 1 2 16.07829 47.86037 45.63413
833 1 2 37.78559 24.82887 17.22543
834 1 2 0.60789 39.60627 26.60673
835 1 2 48.06959 28.26537 18.12373
836 1 2 29.70609 2.89121 26.24103
837 1 2 48.83809 49.13287 19.41903
838 1 2 24.70629 18.14457 44.11583
839 1 2 26.82019 45.57097 10.18713
840 1 2 16.69459 12.99667 31.54763
841 1 2 40.26449 11.23097 46.61703
842 1 2 9.52609 42.42307 45.07523
843 1 2 49.80909 16.30407 8.22343
844 1 2 34.12219 17.04287 48.27683
845 1 2 34.06349 6.90927 41.95783
846 1 2 27.52139 8.77267 28.51463
847 1 2 11.45769 44.81767 15.06853
848 1 2 11.23939 24.80987 31.40853
849 1 2 25.18529 31.24447 16.31993
850 1 2 32.86509 21.71067 11.07013
851 1 2 20.21819 50.92767 3.60704
852 1 2 21.73169 7.17547 51.07853
853 1 2 47.21269 50.92487 12.87793
854 1 2 37.67549 23.97967 25.56943
855 1 2 36.06879 19.68917 43.91433
856 1 2 46.89829 30.53427 20.20253
857 1 2 33.19719 40.25547 32.17433
858 1 2 14.39539 29.93357 31.65313
859 1 2 8.43189 38.14577 40.60763
860 1 2 24.18499 9.10267 51.58803
861 1 2 37.07249 18.49807 19.82243
862 1 2 11.84259 32.21507 10.40953
863 1 2 20.72669 34.37437 10.74163
864 1 2 13.21719 29.04487 25.59473
865 1 2 43.91459 32.69667 50.24993
866 1 2 13.81529 41.15317 42.83363
867 1 2 35.38699 41.83027 6.60463