# LAMMPS data file written by OVITO Basic 3.12.3

10000 atoms
4 atom types

3.96411 56.0434 xlo xhi
3.99613 55.983 ylo yhi
3.97957 55.9872 zlo zhi

Masses

1 1.43686  # Na
2 1.68635  # Al
3 1.75534  # Si
4 0.99996  # O

Atoms  # charge

1 1 0.0 30.2423 49.8212 44.2678
2 1 0.0 48.899 22.8081 9.99914
3 1 0.0 16.1469 33.2926 40.6849
4 1 0.0 43.1186 24.992 24.2586
5 1 0.0 5.23197 45.9149 55.2849
6 1 0.0 6.05445 40.3411 15.5645
7 1 0.0 29.1064 43.6363 42.0949
8 1 0.0 16.8269 23.5474 35.136
9 1 0.0 38.7226 25.9567 19.8346
10 1 0.0 14.8876 52.9396 32.9692
11 1 0.0 39.524 38.8113 25.5762
12 1 0.0 50.9556 46.868 52.9973
13 1 0.0 14.2993 41.7684 30.6547
14 1 0.0 35.3 27.0399 42.6853
15 1 0.0 25.8028 24.2724 10.0741
16 1 0.0 36.3854 19.1368 38.6428
17 1 0.0 18.6492 55.3989 48.4459
18 1 0.0 27.8954 48.7713 53.9793
19 1 0.0 37.7427 15.2087 34.0782
20 1 0.0 18.4938 18.4283 24.7515
21 1 0.0 23.4369 46.8138 28.5392
22 1 0.0 25.0671 6.73959 50.9025
23 1 0.0 15.7273 50.4899 13.4951
24 1 0.0 35.2315 40.7187 35.9717
25 1 0.0 48.106 6.78318 8.76325
26 1 0.0 10.4037 15.8255 34.0634
27 1 0.0 29.1472 47.6431 11.9606
28 1 0.0 35.4492 20.4792 5.20679
29 1 0.0 34.5275 12.662 55.7146
30 1 0.0 47.7289 30.4762 31.9523
31 1 0.0 24.9001 29.309 19.9985
32 1 0.0 37.0973 36.7033 15.8458
33 1 0.0 26.4534 43.7333 47.1578
34 1 0.0 37.5347 30.3608 28.8124
35 1 0.0 38.6079 49.8453 6.858
36 1 0.0 5.51356 36.8673 30.8612
37 1 0.0 13.7102 8.82061 21.9143
38 1 0.0 33.6044 10.2367 9.43107
39 1 0.0 19.8359 38.3156 29.0839
40 1 0.0 33.3029 47.3923 13.8673
41 1 0.0 22.2639 17.3753 52.6576
42 1 0.0 38.8954 49.8273 27.6296
43 1 0.0 4.44734 5.24921 29.7542
44 1 0.0 33.6989 29.9849 28.7063
45 1 0.0 51.1774 49.3813 10.5945
46 1 0.0 6.11232 5.15219 35.7062
47 1 0.0 35.9184 16.2775 44.5651
48 1 0.0 38.0998 6.1051 8.07917
49 1 0.0 31.4878 13.5142 41.4276
50 1 0.0 35.7431 46.1585 39.3309
51 1 0.0 37.8664 37.7158 9.00701
52 1 0.0 7.74087 53.0206 17.4525
53 1 0.0 21.3455 44.7462 14.2681
54 1 0.0 34.2513 5.55378 15.4863
55 1 0.0 6.994 17.8991 54.7766
56 1 0.0 53.4352 13.0933 25.7055
57 1 0.0 34.5473 35.3083 37.7742
58 1 0.0 46.0693 46.3454 50.5702
59 1 0.0 33.3062 40.8167 14.0151
60 1 0.0 35.9345 39.17 23.4599
61 1 0.0 10.6691 39.8598 42.4614
62 1 0.0 15.3661 35.9883 45.0138
63 1 0.0 14.2118 42.9717 52.1445
64 1 0.0 53.4579 6.85134 49.0526
65 1 0.0 4.26281 50.8278 14.9652
66 1 0.0 55.7839 10.9414 34.97
67 1 0.0 25.065 36.0033 30.6732
68 1 0.0 15.6877 53.7789 4.13831
69 1 0.0 42.6488 50.2825 28.1473
70 1 0.0 21.1941 49.8188 16.9763
71 1 0.0 28.4341 20.9783 15.7287
72 1 0.0 40.6813 6.4629 13.7397
73 1 0.0 19.5332 9.88975 41.8664
74 1 0.0 8.5839 15.538 23.7132
75 1 0.0 15.3459 6.96446 32.3048
76 1 0.0 55.8066 44.8299 15.7666
77 1 0.0 14.911 47.4255 4.08082
78 1 0.0 51.0705 47.5027 14.2462
79 1 0.0 18.1435 41.774 21.3207
80 1 0.0 28.9088 12.9488 35.0138
81 1 0.0 55.1644 30.5979 6.08777
82 1 0.0 40.9675 7.70143 35.6855
83 1 0.0 47.3354 39.9858 34.5206
84 1 0.0 9.95158 5.79663 46.9533
85 1 0.0 25.2552 5.80613 36.721
86 1 0.0 39.5895 5.13925 40.9061
87 1 0.0 42.9342 47.3454 12.3974
88 1 0.0 29.8126 45.0124 5.43681
89 1 0.0 9.41187 9.60094 38.7144
90 1 0.0 9.33327 50.5006 43.0893
91 1 0.0 6.22589 34.5394 25.5153
92 1 0.0 26.6066 36.7025 6.24967
93 1 0.0 50.5736 23.3184 16.4145
94 1 0.0 43.6502 46.9946 23.9898
95 1 0.0 4.41529 21.15 17.1188
96 1 0.0 7.00358 23.7784 5.92458
97 1 0.0 20.0194 12.1273 44.0902
98 1 0.0 46.178 34.8405 44.061
99 1 0.0 18.6152 51.2908 47.3001
100 1 0.0 39.1468 13.7359 52.8173
101 1 0.0 41.0471 45.1428 33.3931
102 1 0.0 55.5849 38.4389 39.9745
103 1 0.0 6.8279 6.84835 22.3975
104 1 0.0 41.7274 49.1916 7.11679
105 1 0.0 7.98004 43.2361 21.2153
106 1 0.0 6.47601 45.3864 31.1047
107 1 0.0 39.2413 53.8076 36.5998
108 1 0.0 17.6819 12.4815 46.759
109 1 0.0 5.89119 33.987 49.7285
110 1 0.0 12.8281 38.0104 50.3418
111 1 0.0 17.6818 54.5001 16.08
112 1 0.0 5.06789 50.1565 54.9266
113 1 0.0 45.4448 14.4278 42.3861
114 1 0.0 13.687 37.8813 23.071
115 1 0.0 9.83224 45.7595 13.5229
116 1 0.0 52.4527 26.2612 10.7455
117 1 0.0 35.612 53.5379 46.9928
118 1 0.0 22.5361 12.2984 54.8467
119 1 0.0 22.2258 16.007 38.4634
120 1 0.0 14.1802 37.5427 32.0299
121 1 0.0 42.2562 5.16584 4.78297
122 1 0.0 22.9411 48.2275 46.1442
123 1 0.0 47.7573 12.5178 19.0844
124 1 0.0 35.9952 20.7694 47.7311
125 1 0.0 55.7465 40.4125 9.20527
126 1 0.0 46.0359 23.0164 48.7402
127 1 0.0 24.7497 23.0616 23.1858
128 1 0.0 24.1641 19.4233 30.8284
129 1 0.0 30.7854 26.2972 37.3882
130 1 0.0 40.605 43.0325 8.78792
131 1 0.0 53.2732 25.5723 20.2159
132 1 0.0 9.88444 36.4368 51.9199
133 1 0.0 55.1225 32.8617 21.2061
134 1 0.0 31.7969 25.7377 45.7904
135 1 0.0 19.6035 34.6235 53.6873
136 1 0.0 8.6315 37.6638 17.0033
137 1 0.0 28.1097 20.7997 54.4065
138 1 0.0 7.31474 24.2483 20.7843
139 1 0.0 11.2356 11.1048 29.3293
140 1 0.0 7.48725 42.3999 12.9915
141 1 0.0 6.34951 32.0542 54.6052
142 1 0.0 46.3395 36.078 27.3093
143 1 0.0 6.83104 21.4341 27.1325
144 1 0.0 13.4907 9.70109 5.27189
145 1 0.0 10.4879 27.8712 17.1361
146 1 0.0 47.2406 24.2025 39.6676
147 1 0.0 49.677 7.09736 39.0016
148 1 0.0 53.3628 16.5406 32.7912
149 1 0.0 14.1516 33.7239 50.9394
150 1 0.0 39.9772 23.7493 30.0472
151 1 0.0 46.5982 7.04462 33.5389
152 1 0.0 48.9884 9.00188 28.8466
153 1 0.0 50.2988 27.3661 36.1973
154 1 0.0 12.5967 55.1472 36.1636
155 1 0.0 49.3278 23.8748 27.766
156 1 0.0 17.88 19.7159 29.0169
157 1 0.0 22.1024 11.8226 30.872
158 1 0.0 53.5568 44.1589 38.1543
159 1 0.0 50.9222 23.6451 53.3767
160 1 0.0 54.505 44.5909 49.4246
161 1 0.0 36.9266 45.4611 9.20285
162 1 0.0 16.562 53.1697 11.2013
163 1 0.0 30.2847 46.4943 15.357
164 1 0.0 30.4598 50.7405 52.5187
165 1 0.0 55.1881 15.3711 8.77996
166 1 0.0 51.1939 52.0117 25.7083
167 1 0.0 22.2191 5.13882 47.7782
168 1 0.0 53.7673 37.5424 17.9672
169 1 0.0 24.1103 17.3337 41.0698
170 1 0.0 7.56402 50.4133 46.5421
171 1 0.0 8.49112 19.5906 21.5329
172 1 0.0 22.1839 12.1812 18.1944
173 1 0.0 14.4074 48.7676 43.1749
174 1 0.0 36.0166 43.0585 30.4316
175 1 0.0 54.7353 19.1787 29.4636
176 1 0.0 42.8299 52.9777 7.89358
177 1 0.0 46.702 55.3042 24.4729
178 1 0.0 42.716 17.5697 11.075
179 1 0.0 17.9918 10.9275 33.1481
180 1 0.0 38.0288 23.92 49.9983
181 1 0.0 22.4369 39.1753 25.5509
182 1 0.0 47.3036 31.4012 46.4095
183 1 0.0 5.10588 9.52026 40.613
184 1 0.0 54.1678 52.9778 38.1059
185 1 0.0 54.0999 10.6831 18.7058
186 1 0.0 41.7875 31.9658 22.4317
187 1 0.0 16.5268 5.82879 24.3463
188 1 0.0 17.9848 17.1769 5.17159
189 1 0.0 24.5364 26.2941 44.6695
190 1 0.0 6.55718 40.5444 46.9455
191 1 0.0 56.0434 55.7401 9.86088
192 1 0.0 45.7823 26.731 16.8503
193 1 0.0 14.1594 33.1088 31.2308
194 1 0.0 44.6319 35.7535 7.22543
195 1 0.0 42.1461 45.2573 39.43
196 1 0.0 13.4827 27.9028 32.785
197 1 0.0 39.4289 12.9367 19.9782
198 1 0.0 17.4942 9.82165 16.3403
199 1 0.0 7.54131 50.1625 10.7678
200 1 0.0 50.2872 30.8363 14.0098
201 1 0.0 27.4487 19.1014 21.5275
202 1 0.0 4.16683 10.1799 24.6955
203 1 0.0 37.095 48.1119 50.8573
204 1 0.0 23.7489 20.8505 49.1419
205 1 0.0 33.5088 21.4025 20.6959
206 1 0.0 34.2484 7.39932 36.5175
207 1 0.0 44.5566 5.50875 23.1949
208 1 0.0 41.4761 54.8587 32.9735
209 1 0.0 24.962 29.1418 5.3309
210 1 0.0 31.8399 32.4484 53.977
211 1 0.0 40.1205 19.4564 43.4518
212 1 0.0 32.0237 34.4159 19.7094
213 1 0.0 9.7014 49.1433 34.5426
214 1 0.0 24.3077 31.0798 48.8859
215 1 0.0 49.5612 19.246 22.0362
216 1 0.0 31.8671 13.7877 23.0462
217 1 0.0 19.7962 25.7877 33.6587
218 1 0.0 16.9504 30.9244 46.383
219 1 0.0 19.6335 17.5321 32.2362
220 1 0.0 21.1698 27.9296 43.0347
221 1 0.0 11.717 32.8329 24.9625
222 1 0.0 18.1466 23.7339 48.2633
223 1 0.0 9.37987 43.2472 47.8973
224 1 0.0 31.9901 44.771 24.9749
225 1 0.0 49.6311 44.0575 7.53776
226 1 0.0 44.0055 16.5341 35.2166
227 1 0.0 52.5409 12.8737 14.6081
228 1 0.0 6.9353 44.0539 26.5516
229 1 0.0 25.8138 52.045 38.814
230 1 0.0 39.1578 25.1271 25.6125
231 1 0.0 7.56262 21.5234 8.80259
232 1 0.0 19.8693 31.3022 23.309
233 1 0.0 52.7075 31.8937 25.4988
234 1 0.0 54.9305 53.9882 20.8496
235 1 0.0 18.1434 35.7031 8.43654
236 1 0.0 17.8934 35.6695 42.7421
237 1 0.0 21.1151 50.6205 55.7078
238 1 0.0 15.4489 20.2422 15.0065
239 1 0.0 18.4694 44.343 26.3461
240 1 0.0 18.9716 33.5603 32.7794
241 1 0.0 22.6669 41.5124 9.71816
242 1 0.0 18.4437 21.7699 9.88703
243 1 0.0 30.6308 27.417 19.3052
244 1 0.0 43.1134 9.49431 28.0378
245 1 0.0 43.9622 27.3513 47.6057
246 1 0.0 18.0798 28.3703 19.9345
247 1 0.0 8.31109 8.1468 27.1713
248 1 0.0 34.3677 38.3599 40.1754
249 1 0.0 31.3069 52.5648 12.3388
250 1 0.0 14.0597 40.5644 13.9525
251 1 0.0 16.5681 30.1577 38.1636
252 1 0.0 30.7955 10.5727 17.0914
253 1 0.0 21.9502 13.171 48.7803
254 1 0.0 31.7831 42.3901 11.5648
255 1 0.0 48.2974 31.249 55.2949
256 1 0.0 29.9346 28.673 43.3486
257 1 0.0 46.5096 24.2109 20.8264
258 1 0.0 53.7007 15.8826 47.332
259 1 0.0 37.8371 21.224 30.7476
260 1 0.0 39.646 7.54739 27.4147
261 1 0.0 20.4661 26.7868 6.32159
262 1 0.0 10.3521 38.617 7.1012
263 1 0.0 19.5103 9.39237 46.1543
264 1 0.0 25.5871 35.8425 12.2497
265 1 0.0 7.98063 40.029 31.8368
266 1 0.0 49.6673 38.1386 32.545
267 1 0.0 25.0076 28.0901 16.6114
268 1 0.0 31.6568 33.682 8.31615
269 1 0.0 26.9383 42.6706 55.6196
270 1 0.0 35.2454 41.2177 10.9554
271 1 0.0 35.7948 15.1103 7.47121
272 1 0.0 30.2357 53.2577 5.97383
273 1 0.0 6.59413 34.5875 4.98757
274 1 0.0 25.0987 34.6025 16.1549
275 1 0.0 30.5397 21.2337 10.4999
276 1 0.0 44.6376 8.32014 13.3964
277 1 0.0 45.854 52.2458 12.1936
278 1 0.0 33.1821 10.9167 29.5844
279 1 0.0 48.4172 12.5101 22.7488
280 1 0.0 9.96341 20.874 47.5009
281 1 0.0 48.8885 28.6457 39.0717
282 1 0.0 4.75466 15.5828 24.776
283 1 0.0 47.4431 17.0541 29.2098
284 1 0.0 54.5951 20.8549 39.5197
285 1 0.0 34.5924 53.2592 23.4365
286 1 0.0 9.20868 14.7741 8.9503
287 1 0.0 34.8227 33.4007 54.851
288 1 0.0 18.6037 40.063 53.0566
289 1 0.0 20.5911 9.25888 10.0607
290 1 0.0 25.4818 21.3591 54.9366
291 1 0.0 11.5988 49.5891 19.6631
292 1 0.0 6.61348 17.7693 34.7686
293 1 0.0 21.418 44.7597 43.9924
294 1 0.0 20.1416 7.08895 15.8075
295 1 0.0 26.8963 21.7046 6.67845
296 1 0.0 21.7318 20.3597 44.3047
297 1 0.0 23.4454 42.1285 30.2433
298 1 0.0 28.7723 10.9815 13.164
299 1 0.0 40.314 43.109 53.2505
300 1 0.0 15.6749 45.9588 17.5834
301 1 0.0 12.0729 14.4877 25.1141
302 1 0.0 6.09867 37.0002 36.6397
303 1 0.0 6.47014 31.8335 28.7371
304 1 0.0 28.3448 30.8675 4.9608
305 1 0.0 55.8483 12.0009 29.9862
306 1 0.0 17.4387 50.9713 22.401
307 1 0.0 24.4457 24.928 31.7174
308 1 0.0 35.8563 5.06084 42.6674
309 1 0.0 51.0655 7.33393 32.7515
310 1 0.0 29.8269 8.94223 39.0
311 1 0.0 23.7101 16.8061 13.447
312 1 0.0 21.9046 47.7193 31.87
313 1 0.0 23.4717 12.4353 15.6381
314 1 0.0 37.9739 11.236 23.71
315 1 0.0 48.3483 8.39088 45.9632
316 1 0.0 35.2966 20.4022 25.7751
317 1 0.0 12.3861 7.32495 54.3624
318 1 0.0 8.3984 32.8211 41.7871
319 1 0.0 45.8196 46.4182 21.0344
320 1 0.0 21.363 53.5102 5.43106
321 1 0.0 47.3005 15.5019 13.1046
322 1 0.0 23.8326 8.25972 32.3257
323 1 0.0 45.7745 19.3006 37.2546
324 1 0.0 32.794 15.1792 26.2007
325 1 0.0 51.7094 12.9922 35.7625
326 1 0.0 9.93386 45.2702 6.55657
327 1 0.0 9.80598 17.7679 42.4357
328 1 0.0 24.7652 11.484 33.3262
329 1 0.0 21.438 46.0281 38.8522
330 1 0.0 24.0229 41.5411 34.7594
331 1 0.0 50.9688 35.2805 33.2903
332 1 0.0 6.66222 28.8564 22.1569
333 1 0.0 55.2559 33.9267 38.1556
334 1 0.0 20.8631 54.2101 35.325
335 1 0.0 35.1394 8.26839 32.0828
336 1 0.0 32.7279 18.7382 9.61914
337 1 0.0 14.0529 13.2719 11.6597
338 1 0.0 15.3263 27.1413 52.8578
339 1 0.0 5.57508 15.5929 47.7256
340 1 0.0 44.0707 19.0077 5.34973
341 1 0.0 28.339 12.2324 31.3626
342 1 0.0 21.6855 46.725 22.662
343 1 0.0 8.4989 30.6286 35.6452
344 1 0.0 54.2877 45.554 52.1904
345 1 0.0 55.8459 36.286 54.0472
346 1 0.0 49.4198 43.0878 29.5727
347 1 0.0 14.6683 50.6997 49.8583
348 1 0.0 54.2428 25.8572 5.06508
349 1 0.0 32.1649 44.2148 16.9504
350 1 0.0 32.8767 17.1889 37.6069
351 1 0.0 36.7866 27.0077 11.2451
352 1 0.0 9.98766 21.2386 38.0789
353 1 0.0 18.8705 51.8344 12.6932
354 1 0.0 17.1163 33.7188 14.6067
355 1 0.0 43.6873 15.7961 25.1965
356 1 0.0 47.0541 53.2842 36.3917
357 1 0.0 45.7751 34.5534 21.5872
358 1 0.0 55.3558 38.7315 48.0902
359 1 0.0 4.65206 17.5442 38.3572
360 1 0.0 54.0799 39.3228 27.4363
361 1 0.0 25.1354 7.11204 17.5584
362 1 0.0 31.1641 41.8704 37.8461
363 1 0.0 24.7303 51.0315 19.9106
364 1 0.0 13.0453 54.3235 46.6182
365 1 0.0 10.9493 36.3793 37.0159
366 1 0.0 43.0107 41.9725 50.6747
367 1 0.0 27.9812 11.3993 47.9757
368 1 0.0 54.8282 36.3684 14.8274
369 1 0.0 52.9873 23.2551 26.6155
370 1 0.0 9.43305 25.5501 44.0684
371 1 0.0 15.2203 9.39005 54.0446
372 1 0.0 39.2685 35.2189 48.9066
373 1 0.0 15.3706 11.9725 36.5241
374 1 0.0 8.32602 26.785 51.0703
375 1 0.0 41.2846 55.8805 44.3606
376 1 0.0 24.9403 43.2473 21.5379
377 1 0.0 11.8056 31.3236 19.3883
378 1 0.0 35.1265 37.3949 12.1362
379 1 0.0 21.5379 46.8209 18.6882
380 1 0.0 19.7579 15.0575 19.7805
381 1 0.0 36.4412 28.8771 15.411
382 1 0.0 29.3137 47.4373 19.385
383 1 0.0 41.2025 17.017 5.48737
384 1 0.0 53.3363 8.56733 10.3486
385 1 0.0 27.8105 5.14154 19.1749
386 1 0.0 52.4726 32.5819 37.9024
387 1 0.0 26.0324 5.96144 8.15426
388 1 0.0 54.144 18.7975 9.901
389 1 0.0 43.6695 26.653 55.2873
390 1 0.0 35.3196 25.2321 20.679
391 1 0.0 33.1088 42.928 54.1116
392 1 0.0 30.1454 22.1171 32.6347
393 1 0.0 8.23584 11.8673 33.4552
394 1 0.0 33.7521 53.3173 17.5882
395 1 0.0 12.3763 9.57208 18.4306
396 1 0.0 46.7129 18.3912 23.1214
397 1 0.0 22.3236 54.0711 10.9471
398 1 0.0 11.2061 12.1676 19.9129
399 1 0.0 32.847 6.96422 46.9281
400 1 0.0 18.2598 13.7128 14.7678
401 1 0.0 23.7744 21.5657 42.6568
402 1 0.0 45.0566 42.2669 26.3283
403 1 0.0 48.7406 27.6914 15.5672
404 1 0.0 37.1618 26.5537 47.7176
405 1 0.0 31.3498 16.4795 21.088
406 1 0.0 47.6799 42.3286 45.6445
407 1 0.0 41.6332 23.5805 35.7217
408 1 0.0 52.9666 6.34779 15.2723
409 1 0.0 52.9879 34.7527 12.8124
410 1 0.0 11.504 9.94901 44.6031
411 1 0.0 21.5965 44.4184 5.88006
412 1 0.0 10.0984 29.9842 10.2551
413 1 0.0 50.4459 41.8897 23.4169
414 1 0.0 55.6121 23.732 53.2012
415 1 0.0 17.108 33.4711 4.43173
416 1 0.0 45.8438 50.6775 30.2731
417 1 0.0 21.2747 27.138 30.7124
418 1 0.0 18.2736 16.8573 51.4336
419 1 0.0 19.7946 25.0603 19.0167
420 1 0.0 25.8219 17.8364 47.5434
421 1 0.0 14.0627 14.1175 30.0833
422 1 0.0 42.5394 12.7791 7.40076
423 1 0.0 14.5017 28.7533 25.479
424 1 0.0 52.533 9.73394 53.2385
425 1 0.0 39.0703 35.9226 39.6573
426 1 0.0 37.0999 49.0935 18.9868
427 1 0.0 6.26879 22.3791 30.7742
428 1 0.0 32.5654 18.2292 54.7627
429 1 0.0 23.0563 4.75217 40.6361
430 1 0.0 29.3147 25.4042 12.1502
431 1 0.0 50.9063 34.015 6.91686
432 1 0.0 52.9995 47.8072 21.0417
433 1 0.0 5.25683 16.3316 28.3376
434 1 0.0 23.0995 31.726 5.8075
435 1 0.0 23.8618 34.3097 40.7638
436 1 0.0 5.38329 14.7439 55.3966
437 1 0.0 16.5179 54.9908 7.55345
438 1 0.0 24.5739 35.6139 20.199
439 1 0.0 7.61976 49.9572 20.4764
440 1 0.0 46.5852 41.1927 6.14704
441 1 0.0 44.0075 17.9195 49.7069
442 1 0.0 41.3839 39.3048 33.7088
443 1 0.0 55.2461 40.4905 34.8128
444 1 0.0 33.29 26.4459 34.2459
445 1 0.0 50.3046 9.03856 22.8945
446 1 0.0 40.1857 13.0549 40.8954
447 1 0.0 46.9223 14.0866 6.99522
448 1 0.0 45.5979 35.0967 11.7062
449 1 0.0 20.1862 24.6383 15.5738
450 1 0.0 40.4502 12.6022 34.9863
451 1 0.0 22.7131 47.2986 10.5417
452 1 0.0 20.3249 29.2293 11.5576
453 1 0.0 10.1571 13.8297 52.9192
454 1 0.0 11.3839 21.8806 53.5915
455 1 0.0 45.4022 38.736 55.626
456 1 0.0 32.4051 21.0115 41.0808
457 1 0.0 20.6929 18.8923 49.4946
458 1 0.0 18.6404 18.2393 38.7926
459 1 0.0 27.1168 41.1424 18.7985
460 1 0.0 24.4177 24.3827 16.1164
461 1 0.0 49.5255 54.0071 43.5962
462 1 0.0 18.0269 24.3663 52.2456
463 1 0.0 15.7793 39.969 35.1953
464 1 0.0 52.0691 24.0186 31.0725
465 1 0.0 26.4973 8.06352 27.8605
466 1 0.0 20.7386 28.7292 15.0315
467 1 0.0 16.4257 25.1917 18.6054
468 1 0.0 25.1387 4.96632 5.22574
469 1 0.0 16.8203 36.8615 55.2588
470 1 0.0 42.3392 7.74448 52.2868
471 1 0.0 14.0166 16.592 34.4715
472 1 0.0 54.5849 18.2111 54.9218
473 1 0.0 8.55054 23.7406 29.684
474 1 0.0 48.0766 23.4549 5.70656
475 1 0.0 27.3588 12.6154 20.9724
476 1 0.0 15.4671 14.498 46.0175
477 1 0.0 51.3957 30.2751 52.7803
478 1 0.0 41.2265 43.5276 5.04856
479 1 0.0 53.2338 43.9672 55.17
480 1 0.0 28.9644 32.5118 32.616
481 1 0.0 6.90673 44.0349 6.74935
482 1 0.0 16.9857 30.3701 54.3709
483 1 0.0 19.7057 45.3607 48.6464
484 1 0.0 45.7216 10.3006 46.6369
485 1 0.0 22.5756 27.666 37.1035
486 1 0.0 7.81373 9.79914 44.5128
487 1 0.0 45.1372 16.973 31.8167
488 1 0.0 16.3432 43.3921 9.04475
489 1 0.0 51.2933 40.8209 44.85
490 1 0.0 49.5602 26.2653 44.7105
491 1 0.0 46.8992 53.8363 54.9603
492 1 0.0 51.0991 30.9867 29.3708
493 1 0.0 38.12 33.1855 41.5698
494 1 0.0 6.10996 51.421 30.9924
495 1 0.0 30.1704 54.6287 52.2337
496 1 0.0 54.9628 28.2946 35.8032
497 1 0.0 41.9171 46.5701 48.2374
498 1 0.0 32.5691 40.3665 42.203
499 1 0.0 16.5576 47.1956 22.9271
500 1 0.0 43.7832 35.8597 36.0422
501 1 0.0 20.4209 20.8537 19.8835
502 1 0.0 45.7158 6.78547 48.0909
503 1 0.0 11.4431 23.863 14.7205
504 1 0.0 33.6471 38.6965 6.37067
505 1 0.0 30.572 20.2451 49.4095
506 1 0.0 40.1987 39.8058 20.7863
507 1 0.0 12.3827 46.786 9.21918
508 1 0.0 7.48882 41.108 51.9188
509 1 0.0 14.8625 54.4818 44.0035
510 1 0.0 36.5414 39.6315 52.6787
511 1 0.0 17.2792 6.74927 37.5055
512 1 0.0 8.72125 6.83466 15.9765
513 1 0.0 46.2154 9.39892 55.7701
514 1 0.0 32.6619 30.4899 11.8664
515 1 0.0 9.78489 42.1032 54.3392
516 1 0.0 27.3942 50.6357 47.851
517 1 0.0 33.9775 39.3963 29.051
518 1 0.0 27.1903 27.5709 13.1029
519 1 0.0 22.4543 43.5436 49.9488
520 1 0.0 33.2532 44.7713 47.6891
521 1 0.0 44.8803 53.8991 22.058
522 1 0.0 30.4765 53.5802 30.9888
523 1 0.0 24.1889 6.23828 24.3186
524 1 0.0 45.7025 40.2137 11.5309
525 1 0.0 16.4594 4.39586 10.8357
526 1 0.0 33.067 28.6169 52.0835
527 1 0.0 28.4227 14.4418 45.2701
528 1 0.0 14.5634 28.2476 49.9489
529 1 0.0 36.4549 12.3503 30.6962
530 1 0.0 18.9859 16.3212 12.1609
531 1 0.0 35.8374 38.0345 49.83
532 1 0.0 13.7796 54.7151 12.5612
533 1 0.0 38.9095 6.11874 44.1773
534 1 0.0 14.5047 23.5818 21.0913
535 1 0.0 34.3641 32.3637 45.1833
536 1 0.0 21.8279 10.2945 37.2658
537 1 0.0 24.9316 38.0743 43.3172
538 1 0.0 9.24221 54.0819 30.1153
539 1 0.0 18.3876 55.4845 13.2908
540 1 0.0 18.3797 35.1701 20.7227
541 1 0.0 19.7842 47.6809 13.557
542 1 0.0 42.8316 11.4672 46.3981
543 1 0.0 13.0966 48.291 52.7584
544 1 0.0 27.5471 28.4004 8.01964
545 1 0.0 14.5774 28.8989 13.6027
546 1 0.0 33.2897 51.6762 38.9395
547 1 0.0 9.45925 40.2777 45.3517
548 1 0.0 49.7831 20.5985 35.0357
549 1 0.0 19.2644 42.1607 49.1221
550 1 0.0 32.2968 15.9557 13.0423
551 1 0.0 26.9545 26.6324 51.9426
552 1 0.0 15.2055 18.1739 7.27322
553 1 0.0 43.8793 11.5235 50.3318
554 1 0.0 18.3257 49.1919 24.8712
555 1 0.0 14.5549 35.2129 28.3807
556 1 0.0 51.9268 8.07594 26.9006
557 1 0.0 14.1792 19.5297 49.5216
558 1 0.0 46.9945 20.4366 43.3152
559 1 0.0 51.759 14.6432 43.5463
560 1 0.0 32.5265 34.5089 49.9972
561 1 0.0 16.245 48.2663 36.3748
562 1 0.0 25.5909 43.0526 27.5284
563 1 0.0 5.71894 43.7952 37.0402
564 1 0.0 9.90182 50.8625 52.1687
565 1 0.0 35.7422 29.4496 7.10082
566 1 0.0 54.6082 18.1547 6.77367
567 1 0.0 44.6531 21.2162 14.7356
568 1 0.0 40.6674 31.3534 54.5491
569 1 0.0 53.147 33.2588 10.4146
570 1 0.0 52.6234 50.0232 31.9785
571 1 0.0 51.9198 12.4426 22.9213
572 1 0.0 36.0104 9.73532 20.88
573 1 0.0 29.2742 26.7286 34.8864
574 1 0.0 46.1638 11.2374 15.5482
575 1 0.0 17.5736 46.89 30.5175
576 1 0.0 40.0948 35.0511 14.8342
577 1 0.0 30.4196 40.749 32.5539
578 1 0.0 50.7304 16.0043 16.471
579 1 0.0 26.2005 51.8802 26.3836
580 1 0.0 39.9663 47.3257 43.9193
581 1 0.0 27.9331 31.6716 37.555
582 1 0.0 6.32529 9.98778 50.979
583 1 0.0 45.91 29.7578 40.6172
584 1 0.0 29.1776 41.0238 24.6481
585 1 0.0 22.4466 31.7938 46.022
586 1 0.0 41.1375 26.2149 11.7296
587 1 0.0 49.7877 47.6268 38.8007
588 1 0.0 29.3886 51.6403 24.5786
589 1 0.0 49.8578 17.792 49.921
590 1 0.0 28.7272 54.1954 26.5403
591 1 0.0 14.1455 38.3176 8.35419
592 1 0.0 43.6408 4.38486 25.76
593 1 0.0 15.3359 55.116 26.8405
594 1 0.0 37.2051 48.3418 42.3533
595 1 0.0 41.9545 40.0367 44.4696
596 1 0.0 6.48426 20.778 6.03749
597 1 0.0 42.8695 14.3985 21.0971
598 1 0.0 7.58342 37.705 28.5603
599 1 0.0 48.4473 49.8073 19.8278
600 1 0.0 55.1629 16.5134 15.9974
601 1 0.0 4.80301 14.1021 41.2562
602 1 0.0 8.24178 27.756 14.3723
603 1 0.0 55.6266 47.9514 25.9323
604 1 0.0 18.8029 42.0238 34.4611
605 1 0.0 19.3345 31.1191 27.1089
606 1 0.0 25.3884 52.3444 13.4099
607 1 0.0 15.098 28.0461 44.7318
608 1 0.0 41.1768 32.009 27.7715
609 1 0.0 52.9967 45.1835 42.6801
610 1 0.0 35.4104 55.9423 11.4197
611 1 0.0 4.14636 30.3472 27.1507
612 1 0.0 4.23535 28.7475 51.4143
613 1 0.0 31.7779 36.8143 14.5588
614 1 0.0 53.2265 53.2761 55.2044
615 1 0.0 30.9577 5.61223 31.1027
616 1 0.0 33.7857 9.27657 6.39029
617 1 0.0 26.5091 36.966 40.7179
618 1 0.0 30.0237 49.5808 30.0361
619 1 0.0 38.73 15.1114 13.5868
620 1 0.0 45.6643 29.811 13.8505
621 1 0.0 15.7784 9.6083 12.1699
622 1 0.0 53.5612 45.0821 26.2402
623 1 0.0 33.8269 14.2872 19.5137
624 1 0.0 49.5766 55.0758 27.2044
625 1 0.0 39.0078 40.7783 41.4246
626 1 0.0 5.48242 34.1176 32.7351
627 1 0.0 43.3016 18.7661 24.3391
628 1 0.0 38.7799 19.4965 36.5997
629 1 0.0 52.9508 14.0963 6.19951
630 1 0.0 37.8627 35.3036 29.4919
631 1 0.0 23.1864 17.3044 20.4878
632 1 0.0 43.9527 20.7328 18.9003
633 1 0.0 43.669 25.6587 50.3859
634 1 0.0 37.1647 26.1434 36.6634
635 1 0.0 16.4204 4.66614 54.0174
636 1 0.0 39.3976 54.169 49.1385
637 1 0.0 9.35075 32.6083 21.2423
638 1 0.0 12.7909 38.2288 19.7966
639 1 0.0 11.0329 55.09 18.7349
640 1 0.0 52.0079 35.455 36.4905
641 1 0.0 14.7819 29.2541 7.11263
642 1 0.0 47.4906 47.3289 35.8227
643 1 0.0 37.0994 32.0706 21.7906
644 1 0.0 23.1446 22.7124 45.7823
645 1 0.0 7.66647 34.2537 13.4901
646 1 0.0 28.8908 49.5916 35.2907
647 1 0.0 10.645 36.9011 44.801
648 1 0.0 50.3326 38.5492 53.7745
649 1 0.0 41.403 12.8493 29.6403
650 1 0.0 27.8117 37.678 53.518
651 1 0.0 45.0444 40.5649 23.1662
652 1 0.0 54.035 46.4885 32.0112
653 1 0.0 30.7862 31.6654 29.2101
654 1 0.0 16.0525 15.2095 54.8254
655 1 0.0 51.0744 24.0038 24.6834
656 1 0.0 45.5683 41.7996 39.4751
657 1 0.0 37.0485 35.9584 55.1923
658 1 0.0 46.0469 55.0488 16.7804
659 1 0.0 18.8548 41.111 43.9697
660 1 0.0 51.0763 30.6076 48.3379
661 1 0.0 53.0975 32.6539 41.1931
662 1 0.0 8.61749 5.90458 6.40057
663 1 0.0 31.5855 34.2397 46.4575
664 1 0.0 47.9369 17.411 53.9677
665 1 0.0 22.7344 28.693 23.1736
666 1 0.0 29.7591 43.8139 35.7825
667 1 0.0 14.2661 42.5946 38.8257
668 1 0.0 39.4101 18.6007 52.0373
669 1 0.0 10.3185 4.26997 55.1575
670 1 0.0 26.1439 26.2855 18.963
671 1 0.0 4.52671 22.6416 35.4511
672 1 0.0 13.6282 22.2605 43.8507
673 1 0.0 19.0794 25.1948 28.0202
674 1 0.0 10.3207 14.8855 6.01162
675 1 0.0 14.2206 44.8998 46.2647
676 1 0.0 23.531 12.9313 25.2097
677 1 0.0 39.507 39.5525 14.7216
678 1 0.0 9.81994 52.3673 20.7114
679 1 0.0 19.3363 13.2185 29.9807
680 1 0.0 9.17282 29.6559 49.9109
681 1 0.0 45.8529 50.9971 38.6293
682 1 0.0 21.3801 55.0031 19.4616
683 1 0.0 41.1305 25.198 42.4857
684 1 0.0 16.794 48.588 7.76479
685 1 0.0 5.23965 4.15823 26.4485
686 1 0.0 27.1325 40.5589 47.7708
687 1 0.0 49.2143 17.5259 25.3059
688 1 0.0 8.61227 35.3881 33.6622
689 1 0.0 16.5819 48.0885 53.5829
690 1 0.0 29.4234 54.5909 16.9117
691 1 0.0 48.5809 13.9851 49.8086
692 1 0.0 38.6294 55.4428 20.6072
693 1 0.0 4.45697 32.5586 15.0354
694 1 0.0 5.68014 12.1182 12.43
695 1 0.0 24.616 34.2108 24.401
696 1 0.0 39.9448 48.9762 10.261
697 1 0.0 8.66622 45.8234 23.1782
698 1 0.0 39.3009 24.2007 15.1097
699 1 0.0 52.9403 19.5512 24.7865
700 1 0.0 47.3984 16.5588 34.5971
701 1 0.0 48.8613 5.93102 14.4606
702 1 0.0 49.2161 46.4939 29.9847
703 1 0.0 36.5293 10.0817 50.7351
704 1 0.0 49.5882 55.6594 47.6114
705 1 0.0 55.0002 54.9223 45.4219
706 1 0.0 7.11132 39.8184 20.2709
707 1 0.0 4.5937 20.9607 44.2613
708 1 0.0 49.3656 40.2897 18.8762
709 1 0.0 13.4349 10.3137 9.476
710 1 0.0 5.16823 23.7514 25.5291
711 1 0.0 35.028 49.4673 33.6566
712 1 0.0 35.9181 48.3916 27.9748
713 1 0.0 30.4525 54.1611 37.0906
714 1 0.0 6.67134 29.3696 8.70456
715 1 0.0 55.7025 18.5052 49.0117
716 1 0.0 44.4299 31.4718 52.072
717 1 0.0 31.9831 34.0038 31.1308
718 1 0.0 46.591 28.2156 10.477
719 1 0.0 32.3736 26.7346 39.9112
720 1 0.0 19.7371 10.6128 6.37687
721 1 0.0 51.8085 49.7698 36.3904
722 1 0.0 53.4369 53.7064 14.6507
723 1 0.0 22.8622 32.0644 25.525
724 1 0.0 53.2431 21.5463 49.3013
725 1 0.0 11.4701 43.7026 36.9837
726 1 0.0 53.5948 24.6694 43.7474
727 1 0.0 19.8617 25.4011 36.8959
728 1 0.0 43.8579 8.52031 38.9285
729 1 0.0 40.8662 55.5699 28.4424
730 1 0.0 35.8296 31.9536 26.3691
731 1 0.0 43.479 38.7274 47.3346
732 1 0.0 42.5176 8.4674 20.3873
733 1 0.0 23.7897 37.3027 49.4228
734 1 0.0 54.2477 26.9773 38.2572
735 1 0.0 37.4101 38.6597 43.4629
736 1 0.0 49.4314 36.5179 42.3626
737 1 0.0 54.3871 51.2876 9.22306
738 1 0.0 24.3868 30.3255 29.5722
739 1 0.0 30.1738 25.941 32.0381
740 1 0.0 52.6422 7.53456 29.8143
741 1 0.0 24.1389 32.248 21.8132
742 1 0.0 48.7539 40.1819 50.8683
743 1 0.0 33.0636 45.9454 55.4454
744 1 0.0 8.6161 27.5142 39.3701
745 1 0.0 41.4476 20.0804 30.3473
746 1 0.0 26.4173 17.1848 36.1671
747 1 0.0 54.8357 36.6053 10.809
748 1 0.0 31.6508 43.1486 44.3124
749 1 0.0 20.8401 38.1413 13.6428
750 1 0.0 50.0734 4.97895 6.35913
751 1 0.0 29.4299 23.7728 40.0783
752 1 0.0 35.9031 9.17653 29.3464
753 1 0.0 49.9415 51.6449 50.1656
754 1 0.0 41.9833 49.7882 19.1488
755 1 0.0 43.9527 8.03622 44.8152
756 1 0.0 52.2018 19.0034 5.27285
757 1 0.0 36.9033 6.15363 26.5301
758 1 0.0 7.67231 17.9792 14.9487
759 1 0.0 41.3276 46.1803 54.1994
760 1 0.0 30.7875 35.1327 24.776
761 1 0.0 27.4078 20.5384 36.9565
762 1 0.0 49.4798 37.607 35.8251
763 1 0.0 27.7261 34.3653 43.1759
764 1 0.0 27.3454 7.60633 12.6239
765 1 0.0 29.943 14.2593 49.9784
766 1 0.0 29.9968 22.0683 26.6625
767 1 0.0 5.35394 7.40549 53.4023
768 1 0.0 11.19 26.4862 25.6642
769 1 0.0 51.0888 39.0695 29.7956
770 2 0.0 18.5232 12.8184 17.933
771 2 0.0 47.1071 10.9238 12.69
772 2 0.0 32.2695 27.9894 25.8944
773 2 0.0 49.7663 46.5906 5.22125
774 2 0.0 7.54138 51.4413 53.763
775 2 0.0 36.566 22.422 23.7776
776 2 0.0 46.2473 24.7014 8.46573
777 2 0.0 16.0643 48.7088 33.2472
778 2 0.0 54.3723 24.0215 40.735
779 2 0.0 41.3537 34.0322 45.0906
780 2 0.0 24.0662 4.84974 10.4357
781 2 0.0 30.965 37.8318 17.2385
782 2 0.0 53.6572 42.1157 24.5281
783 2 0.0 52.085 15.7663 24.9653
784 2 0.0 14.0188 17.6448 15.1984
785 2 0.0 41.9248 29.3137 4.65176
786 2 0.0 15.6298 24.2939 7.92958
787 2 0.0 42.087 9.66967 15.0359
788 2 0.0 28.2801 34.4256 46.7823
789 2 0.0 24.242 6.25649 53.7112
790 2 0.0 55.1877 17.6876 13.3728
791 2 0.0 29.5934 40.2125 21.4873
792 2 0.0 18.0439 10.0859 36.9881
793 2 0.0 22.5548 42.38 45.0461
794 2 0.0 54.6716 45.7266 5.41305
795 2 0.0 4.74939 16.7862 31.4733
796 2 0.0 39.7802 54.6389 30.8711
797 2 0.0 8.18566 36.8652 31.7643
798 2 0.0 35.3574 26.4464 17.9989
799 2 0.0 45.4661 52.5257 6.22351
800 2 0.0 45.289 28.9439 34.2079
801 2 0.0 38.5279 44.1149 32.0702
802 2 0.0 32.1688 55.3924 54.4388
803 2 0.0 24.7199 37.0605 9.07413
804 2 0.0 17.1542 13.0387 38.7458
805 2 0.0 20.9725 13.0857 27.2201
806 2 0.0 33.6063 41.0167 8.35871
807 2 0.0 12.1433 26.4648 38.4629
808 2 0.0 28.3591 23.7088 30.1544
809 2 0.0 6.95111 15.5374 5.7526
810 2 0.0 31.989 46.6026 28.9473
811 2 0.0 34.1262 14.4706 29.0054
812 2 0.0 46.2159 8.98276 6.90565
813 2 0.0 11.8614 53.4937 54.9519
814 2 0.0 29.3926 5.68863 42.6244
815 2 0.0 20.645 46.8985 28.9937
816 2 0.0 45.6209 41.3794 48.5234
817 2 0.0 53.0496 32.5797 47.3254
818 2 0.0 28.0558 28.9376 19.8171
819 2 0.0 50.2351 23.0468 12.575
820 2 0.0 9.26348 22.4274 26.1741
821 2 0.0 37.2289 32.9547 34.2613
822 2 0.0 48.1672 23.3247 15.2749
823 2 0.0 37.0155 7.06902 30.9913
824 2 0.0 41.1481 54.7086 52.1742
825 2 0.0 45.2198 4.82154 54.8184
826 2 0.0 40.8285 49.5974 55.9004
827 2 0.0 54.2886 42.0286 40.7687
828 2 0.0 13.9886 26.1257 23.9422
829 2 0.0 28.5407 54.4627 42.7914
830 2 0.0 12.4088 15.7226 53.0681
831 2 0.0 37.7821 21.2536 39.3449
832 2 0.0 20.0424 51.8565 49.6137
833 2 0.0 41.7497 28.825 21.205
834 2 0.0 4.572 43.6024 30.5863
835 2 0.0 52.0337 32.2615 22.1033
836 2 0.0 33.6702 6.88734 30.2206
837 2 0.0 52.8022 53.129 23.3986
838 2 0.0 28.6704 22.1407 48.0954
839 2 0.0 30.7843 49.5671 14.1667
840 2 0.0 20.6587 16.9928 35.5272
841 2 0.0 44.2286 15.2271 50.5966
842 2 0.0 13.4902 46.4192 49.0548
843 2 0.0 53.7732 20.3002 12.203
844 2 0.0 38.0863 21.039 52.2564
845 2 0.0 38.0276 10.9054 45.9374
846 2 0.0 31.4855 12.7688 32.4942
847 2 0.0 15.4218 48.8138 19.0481
848 2 0.0 15.2035 28.806 35.3881
849 2 0.0 29.1494 35.2406 20.2995
850 2 0.0 36.8292 25.7068 15.0497
851 2 0.0 24.1823 54.9238 7.58661
852 2 0.0 25.6958 11.1716 55.0581
853 2 0.0 51.1768 54.921 16.8575
854 2 0.0 41.6396 27.9758 29.549
855 2 0.0 40.0329 23.6853 47.8939
856 2 0.0 50.8624 34.5304 24.1821
857 2 0.0 37.1613 44.2516 36.1539
858 2 0.0 18.3595 33.9297 35.6327
859 2 0.0 12.396 42.1419 44.5872
860 2 0.0 28.1491 13.0988 55.5676
861 2 0.0 41.0366 22.4942 23.802
862 2 0.0 15.8067 36.2112 14.3891
863 2 0.0 24.6908 38.3705 14.7212
864 2 0.0 17.1813 33.041 29.5743
865 2 0.0 47.8787 36.6928 54.2295
866 2 0.0 17.7794 45.1493 46.8132
867 2 0.0 39.3511 45.8264 10.5842
868 2 0.0 50.7534 25.7406 41.6272
869 2 0.0 26.0589 28.0301 23.5316
870 2 0.0 32.6714 49.6482 11.4977
871 2 0.0 41.3166 16.6241 22.5779
872 2 0.0 49.6513 15.8432 52.0364
873 2 0.0 55.2418 41.8127 53.844
874 2 0.0 9.98665 40.964 10.2411
875 2 0.0 33.1266 5.85645 33.4271
876 2 0.0 36.9208 30.252 40.8898
877 2 0.0 31.3838 39.3392 45.1115
878 2 0.0 46.5709 47.5497 18.5449
879 2 0.0 26.0616 11.4744 45.9553
880 2 0.0 52.4102 35.9039 39.3125
881 2 0.0 12.2701 36.3504 17.6482
882 2 0.0 55.8849 46.2474 38.1996
883 2 0.0 21.5563 14.9977 31.1629
884 2 0.0 18.5868 4.87487 27.3465
885 2 0.0 6.78242 20.4203 32.6338
886 2 0.0 55.7767 29.1641 14.4083