# LAMMPS data file written by OVITO Basic 3.11.3

17836 atoms
4 atom types

0.0 57.442 xlo xhi
0.0 89.6467217467 ylo yhi
0.0 44.8738249375 zlo zhi
3.6005889881 -22.3131287661 -2.6072224968 xy xz yz

Masses

1 1.43686  # Na
2 1.68635  # Al
3 1.75534  # Si
4 0.99996  # O

Atoms  # charge

1 1 0.0 2.2840142219 12.5995231797 0.9423503237
2 1 0.0 -0.9035755381 12.2270628305 7.3528966151
3 1 0.0 -4.0911655212 11.8546024552 13.7634433553
4 1 0.0 -7.2787552812 11.4821421059 20.1739896467
5 1 0.0 -10.4663450412 11.1096817567 26.5845359382
6 1 0.0 -13.6539348011 10.7372214075 32.9950822296
7 1 0.0 -16.8415247842 10.3647610322 39.4056289698
8 1 0.0 2.798384103 25.4061983553 0.9423503237
9 1 0.0 -0.389205657 25.0337380061 7.3528966151
10 1 0.0 -3.5767956401 24.6612776308 13.7634433553
11 1 0.0 -6.7643854 24.2888172815 20.1739896467
12 1 0.0 -9.95197516 23.9163569323 26.5845359382
13 1 0.0 -13.13956492 23.543896583 32.9950822296
14 1 0.0 -16.3271549031 23.1714362077 39.4056289698
15 1 0.0 3.3127539482 38.2128726344 0.9423503237
16 1 0.0 0.1251641882 37.8404122852 7.3528966151
17 1 0.0 -3.0624257949 37.4679519099 13.7634433553
18 1 0.0 -6.2500155549 37.0954915606 20.1739896467
19 1 0.0 -9.4376053148 36.7230312114 26.5845359382
20 1 0.0 -12.6251950748 36.3505708622 32.9950822296
21 1 0.0 -15.8127850579 35.9781104869 39.4056289698
22 1 0.0 3.8271237933 51.0195469135 0.9423503237
23 1 0.0 0.6395340334 50.6470865643 7.3528966151
24 1 0.0 -2.5480559497 50.274626189 13.7634433553
25 1 0.0 -5.7356457097 49.9021658397 20.1739896467
26 1 0.0 -8.9232354697 49.5297054905 26.5845359382
27 1 0.0 -12.1108252297 49.1572451413 32.9950822296
28 1 0.0 -15.2984152128 48.784784766 39.4056289698
29 1 0.0 4.3414936385 63.8262211926 0.9423503237
30 1 0.0 1.1539038785 63.4537608434 7.3528966151
31 1 0.0 -2.0336861046 63.0813004681 13.7634433553
32 1 0.0 -5.2212758646 62.7088401189 20.1739896467
33 1 0.0 -8.4088656245 62.3363797696 26.5845359382
34 1 0.0 -11.5964553845 61.9639194204 32.9950822296
35 1 0.0 -14.7840453676 61.5914590451 39.4056289698
36 1 0.0 4.8558635197 76.6328963682 0.9423503237
37 1 0.0 1.6682737597 76.260436019 7.3528966151
38 1 0.0 -1.5193162234 75.8879756437 13.7634433553
39 1 0.0 -4.7069059834 75.5155152944 20.1739896467
40 1 0.0 -7.8944957434 75.1430549452 26.5845359382
41 1 0.0 -11.0820855033 74.770594596 32.9950822296
42 1 0.0 -14.2696754864 74.3981342207 39.4056289698
43 1 0.0 5.3702333648 89.4395706473 0.9423503237
44 1 0.0 2.1826436048 89.0671102981 7.3528966151
45 1 0.0 -1.0049463783 88.6946499228 13.7634433553
46 1 0.0 -4.1925361382 88.3221895736 20.1739896467
47 1 0.0 -7.3801258982 87.9497292243 26.5845359382
48 1 0.0 -10.5677156582 87.5772688751 32.9950822296
49 1 0.0 -13.7553056413 87.2048084998 39.4056289698
50 1 0.0 10.4900140577 12.5995231797 0.9423503237
51 1 0.0 7.3024242978 12.2270628305 7.3528966151
52 1 0.0 4.1148343147 11.8546024552 13.7634433553
53 1 0.0 0.9272445547 11.4821421059 20.1739896467
54 1 0.0 -2.2603452053 11.1096817567 26.5845359382
55 1 0.0 -5.4479349653 10.7372214075 32.9950822296
56 1 0.0 -8.6355249484 10.3647610322 39.4056289698
57 1 0.0 11.0043839389 25.4061983553 0.9423503237
58 1 0.0 7.8167941789 25.0337380061 7.3528966151
59 1 0.0 4.6292041958 24.6612776308 13.7634433553
60 1 0.0 1.4416144358 24.2888172815 20.1739896467
61 1 0.0 -1.7459753241 23.9163569323 26.5845359382
62 1 0.0 -4.9335650841 23.543896583 32.9950822296
63 1 0.0 -8.1211550672 23.1714362077 39.4056289698
64 1 0.0 11.5187537841 38.2128726344 0.9423503237
65 1 0.0 8.3311640241 37.8404122852 7.3528966151
66 1 0.0 5.143574041 37.4679519099 13.7634433553
67 1 0.0 1.955984281 37.0954915606 20.1739896467
68 1 0.0 -1.231605479 36.7230312114 26.5845359382
69 1 0.0 -4.4191952389 36.3505708622 32.9950822296
70 1 0.0 -7.606785222 35.9781104869 39.4056289698
71 1 0.0 12.0331236292 51.0195469135 0.9423503237
72 1 0.0 8.8455338692 50.6470865643 7.3528966151
73 1 0.0 5.6579438861 50.274626189 13.7634433553
74 1 0.0 2.4703541262 49.9021658397 20.1739896467
75 1 0.0 -0.7172356338 49.5297054905 26.5845359382
76 1 0.0 -3.9048253938 49.1572451413 32.9950822296
77 1 0.0 -7.0924153769 48.784784766 39.4056289698
78 1 0.0 12.5474934744 63.8262211926 0.9423503237
79 1 0.0 9.3599037144 63.4537608434 7.3528966151
80 1 0.0 6.1723137313 63.0813004681 13.7634433553
81 1 0.0 2.9847239713 62.7088401189 20.1739896467
82 1 0.0 -0.2028657887 62.3363797696 26.5845359382
83 1 0.0 -3.3904555486 61.9639194204 32.9950822296
84 1 0.0 -6.5780455317 61.5914590451 39.4056289698
85 1 0.0 13.0618633555 76.6328963682 0.9423503237
86 1 0.0 9.8742735956 76.260436019 7.3528966151
87 1 0.0 6.6866836125 75.8879756437 13.7634433553
88 1 0.0 3.4990938525 75.5155152944 20.1739896467
89 1 0.0 0.3115040925 75.1430549452 26.5845359382
90 1 0.0 -2.8760856675 74.770594596 32.9950822296
91 1 0.0 -6.0636756506 74.3981342207 39.4056289698
92 1 0.0 13.5762332007 89.4395706473 0.9423503237
93 1 0.0 10.3886434407 89.0671102981 7.3528966151
94 1 0.0 7.2010534576 88.6946499228 13.7634433553
95 1 0.0 4.0134636976 88.3221895736 20.1739896467
96 1 0.0 0.8258739377 87.9497292243 26.5845359382
97 1 0.0 -2.3617158223 87.5772688751 32.9950822296
98 1 0.0 -5.5493058054 87.2048084998 39.4056289698
99 1 0.0 18.6960138936 12.5995231797 0.9423503237
100 1 0.0 15.5084241336 12.2270628305 7.3528966151
101 1 0.0 12.3208341505 11.8546024552 13.7634433553
102 1 0.0 9.1332443906 11.4821421059 20.1739896467
103 1 0.0 5.9456546306 11.1096817567 26.5845359382
104 1 0.0 2.7580648706 10.7372214075 32.9950822296
105 1 0.0 -0.4295251125 10.3647610322 39.4056289698
106 1 0.0 19.2103837748 25.4061983553 0.9423503237
107 1 0.0 16.0227940148 25.0337380061 7.3528966151
108 1 0.0 12.8352040317 24.6612776308 13.7634433553
109 1 0.0 9.6476142717 24.2888172815 20.1739896467
110 1 0.0 6.4600245118 23.9163569323 26.5845359382
111 1 0.0 3.2724347518 23.543896583 32.9950822296
112 1 0.0 0.0848447687 23.1714362077 39.4056289698
113 1 0.0 19.7247536199 38.2128726344 0.9423503237
114 1 0.0 16.53716386 37.8404122852 7.3528966151
115 1 0.0 13.3495738769 37.4679519099 13.7634433553
116 1 0.0 10.1619841169 37.0954915606 20.1739896467
117 1 0.0 6.9743943569 36.7230312114 26.5845359382
118 1 0.0 3.7868045969 36.3505708622 32.9950822296
119 1 0.0 0.5992146138 35.9781104869 39.4056289698
120 1 0.0 20.2391234651 51.0195469135 0.9423503237
121 1 0.0 17.0515337051 50.6470865643 7.3528966151
122 1 0.0 13.863943722 50.274626189 13.7634433553
123 1 0.0 10.676353962 49.9021658397 20.1739896467
124 1 0.0 7.4887642021 49.5297054905 26.5845359382
125 1 0.0 4.3011744421 49.1572451413 32.9950822296
126 1 0.0 1.113584459 48.784784766 39.4056289698
127 1 0.0 20.7534933103 63.8262211926 0.9423503237
128 1 0.0 17.5659035503 63.4537608434 7.3528966151
129 1 0.0 14.3783135672 63.0813004681 13.7634433553
130 1 0.0 11.1907238072 62.7088401189 20.1739896467
131 1 0.0 8.0031340472 62.3363797696 26.5845359382
132 1 0.0 4.8155442873 61.9639194204 32.9950822296
133 1 0.0 1.6279543042 61.5914590451 39.4056289698
134 1 0.0 21.2678631914 76.6328963682 0.9423503237
135 1 0.0 18.0802734314 76.260436019 7.3528966151
136 1 0.0 14.8926834483 75.8879756437 13.7634433553
137 1 0.0 11.7050936884 75.5155152944 20.1739896467
138 1 0.0 8.5175039284 75.1430549452 26.5845359382
139 1 0.0 5.3299141684 74.770594596 32.9950822296
140 1 0.0 2.1423241853 74.3981342207 39.4056289698
141 1 0.0 21.7822330366 89.4395706473 0.9423503237
142 1 0.0 18.5946432766 89.0671102981 7.3528966151
143 1 0.0 15.4070532935 88.6946499228 13.7634433553
144 1 0.0 12.2194635335 88.3221895736 20.1739896467
145 1 0.0 9.0318737736 87.9497292243 26.5845359382
146 1 0.0 5.8442840136 87.5772688751 32.9950822296
147 1 0.0 2.6566940305 87.2048084998 39.4056289698
148 1 0.0 26.9020143039 12.5995231797 0.9423503237
149 1 0.0 23.7144245439 12.2270628305 7.3528966151
150 1 0.0 20.5268345608 11.8546024552 13.7634433553
151 1 0.0 17.3392448009 11.4821421059 20.1739896467
152 1 0.0 14.1516550409 11.1096817567 26.5845359382
153 1 0.0 10.9640652809 10.7372214075 32.9950822296
154 1 0.0 7.7764752978 10.3647610322 39.4056289698
155 1 0.0 27.4163841851 25.4061983553 0.9423503237
156 1 0.0 24.2287944251 25.0337380061 7.3528966151
157 1 0.0 21.041204442 24.6612776308 13.7634433553
158 1 0.0 17.853614682 24.2888172815 20.1739896467
159 1 0.0 14.6660249221 23.9163569323 26.5845359382
160 1 0.0 11.4784351621 23.543896583 32.9950822296
161 1 0.0 8.290845179 23.1714362077 39.4056289698
162 1 0.0 27.9307540302 38.2128726344 0.9423503237
163 1 0.0 24.7431642703 37.8404122852 7.3528966151
164 1 0.0 21.5555742872 37.4679519099 13.7634433553
165 1 0.0 18.3679845272 37.0954915606 20.1739896467
166 1 0.0 15.1803947672 36.7230312114 26.5845359382
167 1 0.0 11.9928050072 36.3505708622 32.9950822296
168 1 0.0 8.8052150241 35.9781104869 39.4056289698
169 1 0.0 28.4451238754 51.0195469135 0.9423503237
170 1 0.0 25.2575341154 50.6470865643 7.3528966151
171 1 0.0 22.0699441323 50.274626189 13.7634433553
172 1 0.0 18.8823543723 49.9021658397 20.1739896467
173 1 0.0 15.6947646124 49.5297054905 26.5845359382
174 1 0.0 12.5071748524 49.1572451413 32.9950822296
175 1 0.0 9.3195848693 48.784784766 39.4056289698
176 1 0.0 28.9594937206 63.8262211926 0.9423503237
177 1 0.0 25.7719039606 63.4537608434 7.3528966151
178 1 0.0 22.5843139775 63.0813004681 13.7634433553
179 1 0.0 19.3967242175 62.7088401189 20.1739896467
180 1 0.0 16.2091344575 62.3363797696 26.5845359382
181 1 0.0 13.0215446976 61.9639194204 32.9950822296
182 1 0.0 9.8339547145 61.5914590451 39.4056289698
183 1 0.0 29.4738636017 76.6328963682 0.9423503237
184 1 0.0 26.2862738417 76.260436019 7.3528966151
185 1 0.0 23.0986838586 75.8879756437 13.7634433553
186 1 0.0 19.9110940987 75.5155152944 20.1739896467
187 1 0.0 16.7235043387 75.1430549452 26.5845359382
188 1 0.0 13.5359145787 74.770594596 32.9950822296
189 1 0.0 10.3483245956 74.3981342207 39.4056289698
190 1 0.0 29.9882334469 89.4395706473 0.9423503237
191 1 0.0 26.8006436869 89.0671102981 7.3528966151
192 1 0.0 23.6130537038 88.6946499228 13.7634433553
193 1 0.0 20.4254639438 88.3221895736 20.1739896467
194 1 0.0 17.2378741839 87.9497292243 26.5845359382
195 1 0.0 14.0502844239 87.5772688751 32.9950822296
196 1 0.0 10.8626944408 87.2048084998 39.4056289698
197 1 0.0 35.1080141398 12.5995231797 0.9423503237
198 1 0.0 31.9204243798 12.2270628305 7.3528966151
199 1 0.0 28.7328343967 11.8546024552 13.7634433553
200 1 0.0 25.5452446367 11.4821421059 20.1739896467
201 1 0.0 22.3576548768 11.1096817567 26.5845359382
202 1 0.0 19.1700651168 10.7372214075 32.9950822296
203 1 0.0 15.9824751337 10.3647610322 39.4056289698
204 1 0.0 35.622384021 25.4061983553 0.9423503237
205 1 0.0 32.434794261 25.0337380061 7.3528966151
206 1 0.0 29.2472042779 24.6612776308 13.7634433553
207 1 0.0 26.0596145179 24.2888172815 20.1739896467
208 1 0.0 22.8720247579 23.9163569323 26.5845359382
209 1 0.0 19.684434998 23.543896583 32.9950822296
210 1 0.0 16.4968450149 23.1714362077 39.4056289698
211 1 0.0 36.1367538661 38.2128726344 0.9423503237
212 1 0.0 32.9491641061 37.8404122852 7.3528966151
213 1 0.0 29.761574123 37.4679519099 13.7634433553
214 1 0.0 26.5739843631 37.0954915606 20.1739896467
215 1 0.0 23.3863946031 36.7230312114 26.5845359382
216 1 0.0 20.1988048431 36.3505708622 32.9950822296
217 1 0.0 17.01121486 35.9781104869 39.4056289698
218 1 0.0 36.6511237113 51.0195469135 0.9423503237
219 1 0.0 33.4635339513 50.6470865643 7.3528966151
220 1 0.0 30.2759439682 50.274626189 13.7634433553
221 1 0.0 27.0883542082 49.9021658397 20.1739896467
222 1 0.0 23.9007644483 49.5297054905 26.5845359382
223 1 0.0 20.7131746883 49.1572451413 32.9950822296
224 1 0.0 17.5255847052 48.784784766 39.4056289698
225 1 0.0 37.1654935564 63.8262211926 0.9423503237
226 1 0.0 33.9779037965 63.4537608434 7.3528966151
227 1 0.0 30.7903138134 63.0813004681 13.7634433553
228 1 0.0 27.6027240534 62.7088401189 20.1739896467
229 1 0.0 24.4151342934 62.3363797696 26.5845359382
230 1 0.0 21.2275445334 61.9639194204 32.9950822296
231 1 0.0 18.0399545503 61.5914590451 39.4056289698
232 1 0.0 37.6798634376 76.6328963682 0.9423503237
233 1 0.0 34.4922736776 76.260436019 7.3528966151
234 1 0.0 31.3046836945 75.8879756437 13.7634433553
235 1 0.0 28.1170939345 75.5155152944 20.1739896467
236 1 0.0 24.9295041746 75.1430549452 26.5845359382
237 1 0.0 21.7419144146 74.770594596 32.9950822296
238 1 0.0 18.5543244315 74.3981342207 39.4056289698
239 1 0.0 38.1942332828 89.4395706473 0.9423503237
240 1 0.0 35.0066435228 89.0671102981 7.3528966151
241 1 0.0 31.8190535397 88.6946499228 13.7634433553
242 1 0.0 28.6314637797 88.3221895736 20.1739896467
243 1 0.0 25.4438740197 87.9497292243 26.5845359382
244 1 0.0 22.2562842598 87.5772688751 32.9950822296
245 1 0.0 19.0686942767 87.2048084998 39.4056289698
246 1 0.0 43.3140139757 12.5995231797 0.9423503237
247 1 0.0 40.1264242157 12.2270628305 7.3528966151
248 1 0.0 36.9388342326 11.8546024552 13.7634433553
249 1 0.0 33.7512444726 11.4821421059 20.1739896467
250 1 0.0 30.5636547126 11.1096817567 26.5845359382
251 1 0.0 27.3760649527 10.7372214075 32.9950822296
252 1 0.0 24.1884749696 10.3647610322 39.4056289698
253 1 0.0 43.8283838568 25.4061983553 0.9423503237
254 1 0.0 40.6407940969 25.0337380061 7.3528966151
255 1 0.0 37.4532041138 24.6612776308 13.7634433553
256 1 0.0 34.2656143538 24.2888172815 20.1739896467
257 1 0.0 31.0780245938 23.9163569323 26.5845359382
258 1 0.0 27.8904348338 23.543896583 32.9950822296
259 1 0.0 24.7028448507 23.1714362077 39.4056289698
260 1 0.0 44.342753702 38.2128726344 0.9423503237
261 1 0.0 41.155163942 37.8404122852 7.3528966151
262 1 0.0 37.9675739589 37.4679519099 13.7634433553
263 1 0.0 34.7799841989 37.0954915606 20.1739896467
264 1 0.0 31.592394439 36.7230312114 26.5845359382
265 1 0.0 28.404804679 36.3505708622 32.9950822296
266 1 0.0 25.2172146959 35.9781104869 39.4056289698
267 1 0.0 44.8571235472 51.0195469135 0.9423503237
268 1 0.0 41.6695337872 50.6470865643 7.3528966151
269 1 0.0 38.4819438041 50.274626189 13.7634433553
270 1 0.0 35.2943540441 49.9021658397 20.1739896467
271 1 0.0 32.1067642841 49.5297054905 26.5845359382
272 1 0.0 28.9191745242 49.1572451413 32.9950822296
273 1 0.0 25.7315845411 48.784784766 39.4056289698
274 1 0.0 45.3714933923 63.8262211926 0.9423503237
275 1 0.0 42.1839036323 63.4537608434 7.3528966151
276 1 0.0 38.9963136492 63.0813004681 13.7634433553
277 1 0.0 35.8087238893 62.7088401189 20.1739896467
278 1 0.0 32.6211341293 62.3363797696 26.5845359382
279 1 0.0 29.4335443693 61.9639194204 32.9950822296
280 1 0.0 26.2459543862 61.5914590451 39.4056289698
281 1 0.0 45.8858632735 76.6328963682 0.9423503237
282 1 0.0 42.6982735135 76.260436019 7.3528966151
283 1 0.0 39.5106835304 75.8879756437 13.7634433553
284 1 0.0 36.3230937704 75.5155152944 20.1739896467
285 1 0.0 33.1355040105 75.1430549452 26.5845359382
286 1 0.0 29.9479142505 74.770594596 32.9950822296
287 1 0.0 26.7603242674 74.3981342207 39.4056289698
288 1 0.0 46.4002331186 89.4395706473 0.9423503237
289 1 0.0 43.2126433587 89.0671102981 7.3528966151
290 1 0.0 40.0250533756 88.6946499228 13.7634433553
291 1 0.0 36.8374636156 88.3221895736 20.1739896467
292 1 0.0 33.6498738556 87.9497292243 26.5845359382
293 1 0.0 30.4622840956 87.5772688751 32.9950822296
294 1 0.0 27.2746941125 87.2048084998 39.4056289698
295 1 0.0 51.520014386 12.5995231797 0.9423503237
296 1 0.0 48.332424626 12.2270628305 7.3528966151
297 1 0.0 45.1448346429 11.8546024552 13.7634433553
298 1 0.0 41.9572448829 11.4821421059 20.1739896467
299 1 0.0 38.7696551229 11.1096817567 26.5845359382
300 1 0.0 35.582065363 10.7372214075 32.9950822296
301 1 0.0 32.3944753799 10.3647610322 39.4056289698
302 1 0.0 52.0343842671 25.4061983553 0.9423503237
303 1 0.0 48.8467945072 25.0337380061 7.3528966151
304 1 0.0 45.6592045241 24.6612776308 13.7634433553
305 1 0.0 42.4716147641 24.2888172815 20.1739896467
306 1 0.0 39.2840250041 23.9163569323 26.5845359382
307 1 0.0 36.0964352441 23.543896583 32.9950822296
308 1 0.0 32.908845261 23.1714362077 39.4056289698
309 1 0.0 52.5487541123 38.2128726344 0.9423503237
310 1 0.0 49.3611643523 37.8404122852 7.3528966151
311 1 0.0 46.1735743692 37.4679519099 13.7634433553
312 1 0.0 42.9859846092 37.0954915606 20.1739896467
313 1 0.0 39.7983948493 36.7230312114 26.5845359382
314 1 0.0 36.6108050893 36.3505708622 32.9950822296
315 1 0.0 33.4232151062 35.9781104869 39.4056289698
316 1 0.0 53.0631239575 51.0195469135 0.9423503237
317 1 0.0 49.8755341975 50.6470865643 7.3528966151
318 1 0.0 46.6879442144 50.274626189 13.7634433553
319 1 0.0 43.5003544544 49.9021658397 20.1739896467
320 1 0.0 40.3127646944 49.5297054905 26.5845359382
321 1 0.0 37.1251749345 49.1572451413 32.9950822296
322 1 0.0 33.9375849514 48.784784766 39.4056289698
323 1 0.0 53.5774938026 63.8262211926 0.9423503237
324 1 0.0 50.3899040426 63.4537608434 7.3528966151
325 1 0.0 47.2023140595 63.0813004681 13.7634433553
326 1 0.0 44.0147242996 62.7088401189 20.1739896467
327 1 0.0 40.8271345396 62.3363797696 26.5845359382
328 1 0.0 37.6395447796 61.9639194204 32.9950822296
329 1 0.0 34.4519547965 61.5914590451 39.4056289698
330 1 0.0 54.0918636838 76.6328963682 0.9423503237
331 1 0.0 50.9042739238 76.260436019 7.3528966151
332 1 0.0 47.7166839407 75.8879756437 13.7634433553
333 1 0.0 44.5290941807 75.5155152944 20.1739896467
334 1 0.0 41.3415044208 75.1430549452 26.5845359382
335 1 0.0 38.1539146608 74.770594596 32.9950822296
336 1 0.0 34.9663246777 74.3981342207 39.4056289698
337 1 0.0 54.6062335289 89.4395706473 0.9423503237
338 1 0.0 51.418643769 89.0671102981 7.3528966151
339 1 0.0 48.2310537859 88.6946499228 13.7634433553
340 1 0.0 45.0434640259 88.3221895736 20.1739896467
341 1 0.0 41.8558742659 87.9497292243 26.5845359382
342 1 0.0 38.6682845059 87.5772688751 32.9950822296
343 1 0.0 35.4806945228 87.2048084998 39.4056289698
344 1 0.0 3.2487656992 -0.1653092498 5.4681959677
345 1 0.0 0.0611757161 -0.5377696251 11.8787427079
346 1 0.0 -3.1264140439 -0.9102299744 18.2892889993
347 1 0.0 -6.3140038038 -1.2826903236 24.6998352908
348 1 0.0 -9.5015935638 -1.6551506729 31.1103815822
349 1 0.0 -12.6891835469 -2.0276110482 37.5209283224
350 1 0.0 -15.8767733069 -2.4000713974 43.9314746138
351 1 0.0 3.7631355444 12.6413650293 5.4681959677
352 1 0.0 0.5755455613 12.268904654 11.8787427079
353 1 0.0 -2.6120441987 11.8964443047 18.2892889993
354 1 0.0 -5.7996339587 11.5239839555 24.6998352908
355 1 0.0 -8.9872237186 11.1515236063 31.1103815822
356 1 0.0 -12.1748137018 10.779063231 37.5209283224
357 1 0.0 -15.3624034617 10.4066028817 43.9314746138
358 1 0.0 4.2775054255 25.4480402049 5.4681959677
359 1 0.0 1.0899154424 25.0755798296 11.8787427079
360 1 0.0 -2.0976743175 24.7031194803 18.2892889993
361 1 0.0 -5.2852640775 24.3306591311 24.6998352908
362 1 0.0 -8.4728538375 23.9581987818 31.1103815822
363 1 0.0 -11.6604438206 23.5857384065 37.5209283224
364 1 0.0 -14.8480335806 23.2132780573 43.9314746138
365 1 0.0 4.7918752707 38.254714484 5.4681959677
366 1 0.0 1.6042852876 37.8822541087 11.8787427079
367 1 0.0 -1.5833044724 37.5097937594 18.2892889993
368 1 0.0 -4.7708942324 37.1373334102 24.6998352908
369 1 0.0 -7.9584839923 36.764873061 31.1103815822
370 1 0.0 -11.1460739754 36.3924126857 37.5209283224
371 1 0.0 -14.3336637354 36.0199523364 43.9314746138
372 1 0.0 5.3062451159 51.0613887631 5.4681959677
373 1 0.0 2.1186551328 50.6889283878 11.8787427079
374 1 0.0 -1.0689346272 50.3164680386 18.2892889993
375 1 0.0 -4.2565243872 49.9440076893 24.6998352908
376 1 0.0 -7.4441141472 49.5715473401 31.1103815822
377 1 0.0 -10.6317041303 49.1990869648 37.5209283224
378 1 0.0 -13.8192938902 48.8266266155 43.9314746138
379 1 0.0 5.820614961 63.8680630422 5.4681959677
380 1 0.0 2.6330249779 63.4956026669 11.8787427079
381 1 0.0 -0.5545647821 63.1231423177 18.2892889993
382 1 0.0 -3.742154542 62.7506819684 24.6998352908
383 1 0.0 -6.929744302 62.3782216192 31.1103815822
384 1 0.0 -10.1173342851 62.0057612439 37.5209283224
385 1 0.0 -13.3049240451 61.6333008947 43.9314746138
386 1 0.0 6.3349848422 76.6747382178 5.4681959677
387 1 0.0 3.1473948591 76.3022778425 11.8787427079
388 1 0.0 -0.0401949009 75.9298174933 18.2892889993
389 1 0.0 -3.2277846609 75.557357144 24.6998352908
390 1 0.0 -6.4153744208 75.1848967948 31.1103815822
391 1 0.0 -9.6029644039 74.8124364195 37.5209283224
392 1 0.0 -12.7905541639 74.4399760702 43.9314746138
393 1 0.0 11.4547661095 -0.1653092498 5.4681959677
394 1 0.0 8.2671761264 -0.5377696251 11.8787427079
395 1 0.0 5.0795863664 -0.9102299744 18.2892889993
396 1 0.0 1.8919966065 -1.2826903236 24.6998352908
397 1 0.0 -1.2955931535 -1.6551506729 31.1103815822
398 1 0.0 -4.4831831366 -2.0276110482 37.5209283224
399 1 0.0 -7.6707728966 -2.4000713974 43.9314746138
400 1 0.0 11.9691359547 12.6413650293 5.4681959677
401 1 0.0 8.7815459716 12.268904654 11.8787427079
402 1 0.0 5.5939562116 11.8964443047 18.2892889993
403 1 0.0 2.4063664516 11.5239839555 24.6998352908
404 1 0.0 -0.7812233083 11.1515236063 31.1103815822
405 1 0.0 -3.9688132915 10.779063231 37.5209283224
406 1 0.0 -7.1564030514 10.4066028817 43.9314746138
407 1 0.0 12.4835058358 25.4480402049 5.4681959677
408 1 0.0 9.2959158527 25.0755798296 11.8787427079
409 1 0.0 6.1083260928 24.7031194803 18.2892889993
410 1 0.0 2.9207363328 24.3306591311 24.6998352908
411 1 0.0 -0.2668534272 23.9581987818 31.1103815822
412 1 0.0 -3.4544434103 23.5857384065 37.5209283224
413 1 0.0 -6.6420331703 23.2132780573 43.9314746138
414 1 0.0 12.997875681 38.254714484 5.4681959677
415 1 0.0 9.8102856979 37.8822541087 11.8787427079
416 1 0.0 6.6226959379 37.5097937594 18.2892889993
417 1 0.0 3.4351061779 37.1373334102 24.6998352908
418 1 0.0 0.247516418 36.764873061 31.1103815822
419 1 0.0 -2.9400735651 36.3924126857 37.5209283224
420 1 0.0 -6.1276633251 36.0199523364 43.9314746138
421 1 0.0 13.5122455262 51.0613887631 5.4681959677
422 1 0.0 10.324655543 50.6889283878 11.8787427079
423 1 0.0 7.1370657831 50.3164680386 18.2892889993
424 1 0.0 3.9494760231 49.9440076893 24.6998352908
425 1 0.0 0.7618862631 49.5715473401 31.1103815822
426 1 0.0 -2.42570372 49.1990869648 37.5209283224
427 1 0.0 -5.6132934799 48.8266266155 43.9314746138
428 1 0.0 14.0266153713 63.8680630422 5.4681959677
429 1 0.0 10.8390253882 63.4956026669 11.8787427079
430 1 0.0 7.6514356282 63.1231423177 18.2892889993
431 1 0.0 4.4638458683 62.7506819684 24.6998352908
432 1 0.0 1.2762561083 62.3782216192 31.1103815822
433 1 0.0 -1.9113338748 62.0057612439 37.5209283224
434 1 0.0 -5.0989236348 61.6333008947 43.9314746138
435 1 0.0 14.5409852525 76.6747382178 5.4681959677
436 1 0.0 11.3533952694 76.3022778425 11.8787427079
437 1 0.0 8.1658055094 75.9298174933 18.2892889993
438 1 0.0 4.9782157494 75.557357144 24.6998352908
439 1 0.0 1.7906259895 75.1848967948 31.1103815822
440 1 0.0 -1.3969639936 74.8124364195 37.5209283224
441 1 0.0 -4.5845537536 74.4399760702 43.9314746138
442 1 0.0 19.6607659454 -0.1653092498 5.4681959677
443 1 0.0 16.4731759623 -0.5377696251 11.8787427079
444 1 0.0 13.2855862023 -0.9102299744 18.2892889993
445 1 0.0 10.0979964423 -1.2826903236 24.6998352908
446 1 0.0 6.9104066824 -1.6551506729 31.1103815822
447 1 0.0 3.7228166993 -2.0276110482 37.5209283224
448 1 0.0 0.5352269393 -2.4000713974 43.9314746138
449 1 0.0 20.1751357906 12.6413650293 5.4681959677
450 1 0.0 16.9875458074 12.268904654 11.8787427079
451 1 0.0 13.7999560475 11.8964443047 18.2892889993
452 1 0.0 10.6123662875 11.5239839555 24.6998352908
453 1 0.0 7.4247765275 11.1515236063 31.1103815822
454 1 0.0 4.2371865444 10.779063231 37.5209283224
455 1 0.0 1.0495967845 10.4066028817 43.9314746138
456 1 0.0 20.6895056717 25.4480402049 5.4681959677
457 1 0.0 17.5019156886 25.0755798296 11.8787427079
458 1 0.0 14.3143259286 24.7031194803 18.2892889993
459 1 0.0 11.1267361687 24.3306591311 24.6998352908
460 1 0.0 7.9391464087 23.9581987818 31.1103815822
461 1 0.0 4.7515564256 23.5857384065 37.5209283224
462 1 0.0 1.5639666656 23.2132780573 43.9314746138
463 1 0.0 21.2038755169 38.254714484 5.4681959677
464 1 0.0 18.0162855338 37.8822541087 11.8787427079
465 1 0.0 14.8286957738 37.5097937594 18.2892889993
466 1 0.0 11.6411060138 37.1373334102 24.6998352908
467 1 0.0 8.4535162539 36.764873061 31.1103815822
468 1 0.0 5.2659262707 36.3924126857 37.5209283224
469 1 0.0 2.0783365108 36.0199523364 43.9314746138
470 1 0.0 21.718245362 51.0613887631 5.4681959677
471 1 0.0 18.5306553789 50.6889283878 11.8787427079
472 1 0.0 15.343065619 50.3164680386 18.2892889993
473 1 0.0 12.155475859 49.9440076893 24.6998352908
474 1 0.0 8.967886099 49.5715473401 31.1103815822
475 1 0.0 5.7802961159 49.1990869648 37.5209283224
476 1 0.0 2.5927063559 48.8266266155 43.9314746138
477 1 0.0 22.2326152072 63.8680630422 5.4681959677
478 1 0.0 19.0450252241 63.4956026669 11.8787427079
479 1 0.0 15.8574354641 63.1231423177 18.2892889993
480 1 0.0 12.6698457041 62.7506819684 24.6998352908
481 1 0.0 9.4822559442 62.3782216192 31.1103815822
482 1 0.0 6.2946659611 62.0057612439 37.5209283224
483 1 0.0 3.1070762011 61.6333008947 43.9314746138
484 1 0.0 22.7469850884 76.6747382178 5.4681959677
485 1 0.0 19.5593951053 76.3022778425 11.8787427079
486 1 0.0 16.3718053453 75.9298174933 18.2892889993
487 1 0.0 13.1842155853 75.557357144 24.6998352908
488 1 0.0 9.9966258253 75.1848967948 31.1103815822
489 1 0.0 6.8090358422 74.8124364195 37.5209283224
490 1 0.0 3.6214460823 74.4399760702 43.9314746138
491 1 0.0 27.8667657813 -0.1653092498 5.4681959677
492 1 0.0 24.6791757982 -0.5377696251 11.8787427079
493 1 0.0 21.4915860382 -0.9102299744 18.2892889993
494 1 0.0 18.3039962782 -1.2826903236 24.6998352908
495 1 0.0 15.1164065183 -1.6551506729 31.1103815822
496 1 0.0 11.9288165351 -2.0276110482 37.5209283224
497 1 0.0 8.7412267752 -2.4000713974 43.9314746138
498 1 0.0 28.3811356264 12.6413650293 5.4681959677
499 1 0.0 25.1935456433 12.268904654 11.8787427079
500 1 0.0 22.0059558834 11.8964443047 18.2892889993
501 1 0.0 18.8183661234 11.5239839555 24.6998352908
502 1 0.0 15.6307763634 11.1515236063 31.1103815822
503 1 0.0 12.4431863803 10.779063231 37.5209283224
504 1 0.0 9.2555966203 10.4066028817 43.9314746138
505 1 0.0 28.8955055076 25.4480402049 5.4681959677
506 1 0.0 25.7079155245 25.0755798296 11.8787427079
507 1 0.0 22.5203257645 24.7031194803 18.2892889993
508 1 0.0 19.3327360045 24.3306591311 24.6998352908
509 1 0.0 16.1451462446 23.9581987818 31.1103815822
510 1 0.0 12.9575562615 23.5857384065 37.5209283224
511 1 0.0 9.7699665015 23.2132780573 43.9314746138
512 1 0.0 29.4098753528 38.254714484 5.4681959677
513 1 0.0 26.2222853697 37.8822541087 11.8787427079
514 1 0.0 23.0346956097 37.5097937594 18.2892889993
515 1 0.0 19.8471058497 37.1373334102 24.6998352908
516 1 0.0 16.6595160897 36.764873061 31.1103815822
517 1 0.0 13.4719261066 36.3924126857 37.5209283224
518 1 0.0 10.2843363467 36.0199523364 43.9314746138
519 1 0.0 29.9242451979 51.0613887631 5.4681959677
520 1 0.0 26.7366552148 50.6889283878 11.8787427079
521 1 0.0 23.5490654548 50.3164680386 18.2892889993
522 1 0.0 20.3614756949 49.9440076893 24.6998352908
523 1 0.0 17.1738859349 49.5715473401 31.1103815822
524 1 0.0 13.9862959518 49.1990869648 37.5209283224
525 1 0.0 10.7987061918 48.8266266155 43.9314746138
526 1 0.0 30.4386150431 63.8680630422 5.4681959677
527 1 0.0 27.25102506 63.4956026669 11.8787427079
528 1 0.0 24.0634353 63.1231423177 18.2892889993
529 1 0.0 20.87584554 62.7506819684 24.6998352908
530 1 0.0 17.6882557801 62.3782216192 31.1103815822
531 1 0.0 14.5006657969 62.0057612439 37.5209283224
532 1 0.0 11.313076037 61.6333008947 43.9314746138
533 1 0.0 30.9529849242 76.6747382178 5.4681959677
534 1 0.0 27.7653949411 76.3022778425 11.8787427079
535 1 0.0 24.5778051812 75.9298174933 18.2892889993
536 1 0.0 21.3902154212 75.557357144 24.6998352908
537 1 0.0 18.2026256612 75.1848967948 31.1103815822
538 1 0.0 15.0150356781 74.8124364195 37.5209283224
539 1 0.0 11.8274459181 74.4399760702 43.9314746138
540 1 0.0 36.0727661916 -0.1653092498 5.4681959677
541 1 0.0 32.8851762085 -0.5377696251 11.8787427079
542 1 0.0 29.6975864485 -0.9102299744 18.2892889993
543 1 0.0 26.5099966885 -1.2826903236 24.6998352908
544 1 0.0 23.3224069286 -1.6551506729 31.1103815822
545 1 0.0 20.1348169454 -2.0276110482 37.5209283224
546 1 0.0 16.9472271855 -2.4000713974 43.9314746138
547 1 0.0 36.5871360367 12.6413650293 5.4681959677
548 1 0.0 33.3995460536 12.268904654 11.8787427079
549 1 0.0 30.2119562937 11.8964443047 18.2892889993
550 1 0.0 27.0243665337 11.5239839555 24.6998352908
551 1 0.0 23.8367767737 11.1515236063 31.1103815822
552 1 0.0 20.6491867906 10.779063231 37.5209283224
553 1 0.0 17.4615970306 10.4066028817 43.9314746138
554 1 0.0 37.1015059179 25.4480402049 5.4681959677
555 1 0.0 33.9139159348 25.0755798296 11.8787427079
556 1 0.0 30.7263261748 24.7031194803 18.2892889993
557 1 0.0 27.5387364148 24.3306591311 24.6998352908
558 1 0.0 24.3511466549 23.9581987818 31.1103815822
559 1 0.0 21.1635566718 23.5857384065 37.5209283224
560 1 0.0 17.9759669118 23.2132780573 43.9314746138
561 1 0.0 37.6158757631 38.254714484 5.4681959677
562 1 0.0 34.42828578 37.8822541087 11.8787427079
563 1 0.0 31.24069602 37.5097937594 18.2892889993
564 1 0.0 28.05310626 37.1373334102 24.6998352908
565 1 0.0 24.8655165 36.764873061 31.1103815822
566 1 0.0 21.6779265169 36.3924126857 37.5209283224
567 1 0.0 18.490336757 36.0199523364 43.9314746138
568 1 0.0 38.1302456082 51.0613887631 5.4681959677
569 1 0.0 34.9426556251 50.6889283878 11.8787427079
570 1 0.0 31.7550658651 50.3164680386 18.2892889993
571 1 0.0 28.5674761052 49.9440076893 24.6998352908
572 1 0.0 25.3798863452 49.5715473401 31.1103815822
573 1 0.0 22.1922963621 49.1990869648 37.5209283224
574 1 0.0 19.0047066021 48.8266266155 43.9314746138
575 1 0.0 38.6446154534 63.8680630422 5.4681959677
576 1 0.0 35.4570254703 63.4956026669 11.8787427079
577 1 0.0 32.2694357103 63.1231423177 18.2892889993
578 1 0.0 29.0818459503 62.7506819684 24.6998352908
579 1 0.0 25.8942561904 62.3782216192 31.1103815822
580 1 0.0 22.7066662072 62.0057612439 37.5209283224